 Entering Gaussian System, Link 0=g16
 Input=5_hexagons19_opt.com
 Output=5_hexagons19_opt.log
 Initial command:
 /share/programs/G16_SLATER/g16/l1.exe "/scratch/avaret.40281/Gau-4579.inp" -scrdir="/scratch/avaret.40281/"
 Entering Link 1 = /share/programs/G16_SLATER/g16/l1.exe PID=      4856.
  
 Copyright (c) 1988,1990,1992,1993,1995,1998,2003,2009,2016,
            Gaussian, Inc.  All Rights Reserved.
  
 This is part of the Gaussian(R) 16 program.  It is based on
 the Gaussian(R) 09 system (copyright 2009, Gaussian, Inc.),
 the Gaussian(R) 03 system (copyright 2003, Gaussian, Inc.),
 the Gaussian(R) 98 system (copyright 1998, Gaussian, Inc.),
 the Gaussian(R) 94 system (copyright 1995, Gaussian, Inc.),
 the Gaussian 92(TM) system (copyright 1992, Gaussian, Inc.),
 the Gaussian 90(TM) system (copyright 1990, Gaussian, Inc.),
 the Gaussian 88(TM) system (copyright 1988, Gaussian, Inc.),
 the Gaussian 86(TM) system (copyright 1986, Carnegie Mellon
 University), and the Gaussian 82(TM) system (copyright 1983,
 Carnegie Mellon University). Gaussian is a federally registered
 trademark of Gaussian, Inc.
  
 This software contains proprietary and confidential information,
 including trade secrets, belonging to Gaussian, Inc.
  
 This software is provided under written license and may be
 used, copied, transmitted, or stored only in accord with that
 written license.
  
 The following legend is applicable only to US Government
 contracts under FAR:
  
                    RESTRICTED RIGHTS LEGEND
  
 Use, reproduction and disclosure by the US Government is
 subject to restrictions as set forth in subparagraphs (a)
 and (c) of the Commercial Computer Software - Restricted
 Rights clause in FAR 52.227-19.
  
 Gaussian, Inc.
 340 Quinnipiac St., Bldg. 40, Wallingford CT 06492
  
  
 ---------------------------------------------------------------
 Warning -- This program may not be used in any manner that
 competes with the business of Gaussian, Inc. or will provide
 assistance to any competitor of Gaussian, Inc.  The licensee
 of this program is prohibited from giving any competitor of
 Gaussian, Inc. access to this program.  By using this program,
 the user acknowledges that Gaussian, Inc. is engaged in the
 business of creating and licensing software in the field of
 computational chemistry and represents and warrants to the
 licensee that it is not a competitor of Gaussian, Inc. and that
 it will not use this program in any manner prohibited above.
 ---------------------------------------------------------------
  

 Cite this work as:
 Gaussian 16, Revision A.03,
 M. J. Frisch, G. W. Trucks, H. B. Schlegel, G. E. Scuseria, 
 M. A. Robb, J. R. Cheeseman, G. Scalmani, V. Barone, 
 G. A. Petersson, H. Nakatsuji, X. Li, M. Caricato, A. V. Marenich, 
 J. Bloino, B. G. Janesko, R. Gomperts, B. Mennucci, H. P. Hratchian, 
 J. V. Ortiz, A. F. Izmaylov, J. L. Sonnenberg, D. Williams-Young, 
 F. Ding, F. Lipparini, F. Egidi, J. Goings, B. Peng, A. Petrone, 
 T. Henderson, D. Ranasinghe, V. G. Zakrzewski, J. Gao, N. Rega, 
 G. Zheng, W. Liang, M. Hada, M. Ehara, K. Toyota, R. Fukuda, 
 J. Hasegawa, M. Ishida, T. Nakajima, Y. Honda, O. Kitao, H. Nakai, 
 T. Vreven, K. Throssell, J. A. Montgomery, Jr., J. E. Peralta, 
 F. Ogliaro, M. J. Bearpark, J. J. Heyd, E. N. Brothers, K. N. Kudin, 
 V. N. Staroverov, T. A. Keith, R. Kobayashi, J. Normand, 
 K. Raghavachari, A. P. Rendell, J. C. Burant, S. S. Iyengar, 
 J. Tomasi, M. Cossi, J. M. Millam, M. Klene, C. Adamo, R. Cammi, 
 J. W. Ochterski, R. L. Martin, K. Morokuma, O. Farkas, 
 J. B. Foresman, and D. J. Fox, Gaussian, Inc., Wallingford CT, 2016.
 
 ******************************************
 Gaussian 16:  ES64L-G16RevA.03 25-Dec-2016
                 3-Nov-2021 
 ******************************************
 %nproc=16
 Will use up to   16 processors via shared memory.
 %chk=5_hexagons19.chk
 %mem=1Gb
 ---------------------------------------------
 # b3lyp/6-31g Symmetry=None opt(calcall) freq
 ---------------------------------------------
 1/10=4,18=20,19=15,26=3,38=1/1,3;
 2/9=110,12=2,15=3,17=6,18=5,40=1/2;
 3/5=1,6=6,11=2,25=1,30=1,71=2,74=-5,140=1/1,2,3;
 4//1;
 5/5=2,38=5/2;
 8/6=4,10=90,11=11/1;
 11/6=1,8=1,9=11,15=111,16=1,31=1/1,2,10;
 10/6=1,31=1/2;
 6/7=2,8=2,9=2,10=2,18=1,28=1/1;
 7/10=1,25=1,30=1/1,2,3,16;
 1/10=4,18=20,19=15,26=3/3(3);
 2/9=110,15=3/2;
 7/8=1,9=1,25=1,30=1,44=-1/16;
 99//99;
 2/9=110,15=3/2;
 3/5=1,6=6,11=2,25=1,30=1,71=2,74=-5,140=1/1,2,3;
 4/5=5,16=3,69=1/1;
 5/5=2,38=5/2;
 8/6=4,10=90,11=11/1;
 11/6=1,8=1,9=11,15=111,16=1,31=1/1,2,10;
 10/6=1,31=1/2;
 7/10=1,25=1,30=1/1,2,3,16;
 1/10=4,18=20,19=15,26=3/3(-8);
 2/9=110,15=3/2;
 6/7=2,8=2,9=2,10=2,18=1,19=2,28=1/1;
 7/8=1,9=1,25=1,30=1,44=-1/16;
 99//99;
 ------------
 5_hexagons19
 ------------
 Symbolic Z-matrix:
 Charge =  0 Multiplicity = 2
 C                     0.        2.82777  -2.87884 
 C                     0.        1.55922  -2.319 
 C                     0.        3.98164  -2.06973 
 C                     0.        1.3177   -0.91283 
 C                     0.        2.52164  -0.10465 
 C                     0.        0.       -0.24061 
 C                     0.        3.81663  -0.70431 
 C                     0.        2.44865   1.29861 
 C                     0.       -1.55922  -2.319 
 C                     0.       -1.3177   -0.91283 
 C                     0.       -2.82777  -2.87884 
 C                     0.       -2.52164  -0.10465 
 C                     0.        0.        1.19554 
 C                     0.       -3.98164  -2.06973 
 C                     0.       -3.81663  -0.70431 
 C                     0.       -2.44865   1.29861 
 C                     0.        1.22789   1.96561 
 C                     0.       -1.22789   1.96561 
 C                     0.        1.20033   3.39311 
 C                     0.       -1.20033   3.39311 
 C                     0.        0.        4.09503 
 H                     0.        2.92388  -3.96007 
 H                     0.        0.75538  -3.02387 
 H                     0.        4.67784  -0.0425 
 H                     0.        4.97098  -2.51462 
 H                     0.        3.37071   1.87298 
 H                     0.       -3.37071   1.87298 
 H                     0.       -2.14874   3.92129 
 H                     0.        0.        5.18012 
 H                     0.        2.14874   3.92129 
 H                     0.       -2.92388  -3.96007 
 H                     0.       -4.97098  -2.51462 
 H                     0.       -4.67784  -0.0425 
 H                     0.       -0.75538  -3.02587 
 

 GradGradGradGradGradGradGradGradGradGradGradGradGradGradGradGradGradGrad
 Berny optimization.
 Initialization pass.
                           ----------------------------
                           !    Initial Parameters    !
                           ! (Angstroms and Degrees)  !
 --------------------------                            --------------------------
 ! Name  Definition              Value          Derivative Info.                !
 --------------------------------------------------------------------------------
 ! R1    R(1,2)                  1.3866         calculate D2E/DX2 analytically  !
 ! R2    R(1,3)                  1.4093         calculate D2E/DX2 analytically  !
 ! R3    R(1,22)                 1.0855         calculate D2E/DX2 analytically  !
 ! R4    R(2,4)                  1.4268         calculate D2E/DX2 analytically  !
 ! R5    R(2,23)                 1.0691         calculate D2E/DX2 analytically  !
 ! R6    R(3,7)                  1.3754         calculate D2E/DX2 analytically  !
 ! R7    R(3,25)                 1.0848         calculate D2E/DX2 analytically  !
 ! R8    R(4,5)                  1.45           calculate D2E/DX2 analytically  !
 ! R9    R(4,6)                  1.4793         calculate D2E/DX2 analytically  !
 ! R10   R(5,7)                  1.4271         calculate D2E/DX2 analytically  !
 ! R11   R(5,8)                  1.4052         calculate D2E/DX2 analytically  !
 ! R12   R(6,10)                 1.4793         calculate D2E/DX2 analytically  !
 ! R13   R(6,13)                 1.4361         calculate D2E/DX2 analytically  !
 ! R14   R(7,24)                 1.0861         calculate D2E/DX2 analytically  !
 ! R15   R(8,17)                 1.3911         calculate D2E/DX2 analytically  !
 ! R16   R(8,26)                 1.0863         calculate D2E/DX2 analytically  !
 ! R17   R(9,10)                 1.4268         calculate D2E/DX2 analytically  !
 ! R18   R(9,11)                 1.3866         calculate D2E/DX2 analytically  !
 ! R19   R(9,34)                 1.0704         calculate D2E/DX2 analytically  !
 ! R20   R(10,12)                1.45           calculate D2E/DX2 analytically  !
 ! R21   R(11,14)                1.4093         calculate D2E/DX2 analytically  !
 ! R22   R(11,31)                1.0855         calculate D2E/DX2 analytically  !
 ! R23   R(12,15)                1.4271         calculate D2E/DX2 analytically  !
 ! R24   R(12,16)                1.4052         calculate D2E/DX2 analytically  !
 ! R25   R(13,17)                1.4494         calculate D2E/DX2 analytically  !
 ! R26   R(13,18)                1.4494         calculate D2E/DX2 analytically  !
 ! R27   R(14,15)                1.3754         calculate D2E/DX2 analytically  !
 ! R28   R(14,32)                1.0848         calculate D2E/DX2 analytically  !
 ! R29   R(15,33)                1.0861         calculate D2E/DX2 analytically  !
 ! R30   R(16,18)                1.3911         calculate D2E/DX2 analytically  !
 ! R31   R(16,27)                1.0863         calculate D2E/DX2 analytically  !
 ! R32   R(17,19)                1.4278         calculate D2E/DX2 analytically  !
 ! R33   R(18,20)                1.4278         calculate D2E/DX2 analytically  !
 ! R34   R(19,21)                1.3905         calculate D2E/DX2 analytically  !
 ! R35   R(19,30)                1.0856         calculate D2E/DX2 analytically  !
 ! R36   R(20,21)                1.3905         calculate D2E/DX2 analytically  !
 ! R37   R(20,28)                1.0856         calculate D2E/DX2 analytically  !
 ! R38   R(21,29)                1.0851         calculate D2E/DX2 analytically  !
 ! A1    A(2,1,3)              121.1485         calculate D2E/DX2 analytically  !
 ! A2    A(2,1,22)             118.8927         calculate D2E/DX2 analytically  !
 ! A3    A(3,1,22)             119.9587         calculate D2E/DX2 analytically  !
 ! A4    A(1,2,4)              123.559          calculate D2E/DX2 analytically  !
 ! A5    A(1,2,23)             114.9403         calculate D2E/DX2 analytically  !
 ! A6    A(4,2,23)             121.5007         calculate D2E/DX2 analytically  !
 ! A7    A(1,3,7)              118.1482         calculate D2E/DX2 analytically  !
 ! A8    A(1,3,25)             120.749          calculate D2E/DX2 analytically  !
 ! A9    A(7,3,25)             121.1029         calculate D2E/DX2 analytically  !
 ! A10   A(2,4,5)              114.1265         calculate D2E/DX2 analytically  !
 ! A11   A(2,4,6)              126.7744         calculate D2E/DX2 analytically  !
 ! A12   A(5,4,6)              119.0991         calculate D2E/DX2 analytically  !
 ! A13   A(4,5,7)              121.2806         calculate D2E/DX2 analytically  !
 ! A14   A(4,5,8)              120.8952         calculate D2E/DX2 analytically  !
 ! A15   A(7,5,8)              117.8242         calculate D2E/DX2 analytically  !
 ! A16   A(4,6,10)             125.9432         calculate D2E/DX2 analytically  !
 ! A17   A(4,6,13)             117.0284         calculate D2E/DX2 analytically  !
 ! A18   A(10,6,13)            117.0284         calculate D2E/DX2 analytically  !
 ! A19   A(3,7,5)              121.7372         calculate D2E/DX2 analytically  !
 ! A20   A(3,7,24)             120.6507         calculate D2E/DX2 analytically  !
 ! A21   A(5,7,24)             117.6121         calculate D2E/DX2 analytically  !
 ! A22   A(5,8,17)             121.6286         calculate D2E/DX2 analytically  !
 ! A23   A(5,8,26)             118.9421         calculate D2E/DX2 analytically  !
 ! A24   A(17,8,26)            119.4292         calculate D2E/DX2 analytically  !
 ! A25   A(10,9,11)            123.559          calculate D2E/DX2 analytically  !
 ! A26   A(10,9,34)            121.5812         calculate D2E/DX2 analytically  !
 ! A27   A(11,9,34)            114.8598         calculate D2E/DX2 analytically  !
 ! A28   A(6,10,9)             126.7744         calculate D2E/DX2 analytically  !
 ! A29   A(6,10,12)            119.0991         calculate D2E/DX2 analytically  !
 ! A30   A(9,10,12)            114.1265         calculate D2E/DX2 analytically  !
 ! A31   A(9,11,14)            121.1485         calculate D2E/DX2 analytically  !
 ! A32   A(9,11,31)            118.8927         calculate D2E/DX2 analytically  !
 ! A33   A(14,11,31)           119.9587         calculate D2E/DX2 analytically  !
 ! A34   A(10,12,15)           121.2806         calculate D2E/DX2 analytically  !
 ! A35   A(10,12,16)           120.8952         calculate D2E/DX2 analytically  !
 ! A36   A(15,12,16)           117.8242         calculate D2E/DX2 analytically  !
 ! A37   A(6,13,17)            122.0937         calculate D2E/DX2 analytically  !
 ! A38   A(6,13,18)            122.0937         calculate D2E/DX2 analytically  !
 ! A39   A(17,13,18)           115.8126         calculate D2E/DX2 analytically  !
 ! A40   A(11,14,15)           118.1482         calculate D2E/DX2 analytically  !
 ! A41   A(11,14,32)           120.749          calculate D2E/DX2 analytically  !
 ! A42   A(15,14,32)           121.1029         calculate D2E/DX2 analytically  !
 ! A43   A(12,15,14)           121.7372         calculate D2E/DX2 analytically  !
 ! A44   A(12,15,33)           117.6121         calculate D2E/DX2 analytically  !
 ! A45   A(14,15,33)           120.6507         calculate D2E/DX2 analytically  !
 ! A46   A(12,16,18)           121.6286         calculate D2E/DX2 analytically  !
 ! A47   A(12,16,27)           118.9421         calculate D2E/DX2 analytically  !
 ! A48   A(18,16,27)           119.4292         calculate D2E/DX2 analytically  !
 ! A49   A(8,17,13)            119.2551         calculate D2E/DX2 analytically  !
 ! A50   A(8,17,19)            119.7575         calculate D2E/DX2 analytically  !
 ! A51   A(13,17,19)           120.9874         calculate D2E/DX2 analytically  !
 ! A52   A(13,18,16)           119.2551         calculate D2E/DX2 analytically  !
 ! A53   A(13,18,20)           120.9874         calculate D2E/DX2 analytically  !
 ! A54   A(16,18,20)           119.7575         calculate D2E/DX2 analytically  !
 ! A55   A(17,19,21)           121.4242         calculate D2E/DX2 analytically  !
 ! A56   A(17,19,30)           118.0078         calculate D2E/DX2 analytically  !
 ! A57   A(21,19,30)           120.5681         calculate D2E/DX2 analytically  !
 ! A58   A(18,20,21)           121.4242         calculate D2E/DX2 analytically  !
 ! A59   A(18,20,28)           118.0078         calculate D2E/DX2 analytically  !
 ! A60   A(21,20,28)           120.5681         calculate D2E/DX2 analytically  !
 ! A61   A(19,21,20)           119.3641         calculate D2E/DX2 analytically  !
 ! A62   A(19,21,29)           120.3179         calculate D2E/DX2 analytically  !
 ! A63   A(20,21,29)           120.3179         calculate D2E/DX2 analytically  !
 ! D1    D(3,1,2,4)              0.0            calculate D2E/DX2 analytically  !
 ! D2    D(3,1,2,23)           180.0            calculate D2E/DX2 analytically  !
 ! D3    D(22,1,2,4)           180.0            calculate D2E/DX2 analytically  !
 ! D4    D(22,1,2,23)            0.0            calculate D2E/DX2 analytically  !
 ! D5    D(2,1,3,7)              0.0            calculate D2E/DX2 analytically  !
 ! D6    D(2,1,3,25)           180.0            calculate D2E/DX2 analytically  !
 ! D7    D(22,1,3,7)           180.0            calculate D2E/DX2 analytically  !
 ! D8    D(22,1,3,25)            0.0            calculate D2E/DX2 analytically  !
 ! D9    D(1,2,4,5)              0.0            calculate D2E/DX2 analytically  !
 ! D10   D(1,2,4,6)            180.0            calculate D2E/DX2 analytically  !
 ! D11   D(23,2,4,5)           180.0            calculate D2E/DX2 analytically  !
 ! D12   D(23,2,4,6)             0.0            calculate D2E/DX2 analytically  !
 ! D13   D(1,3,7,5)              0.0            calculate D2E/DX2 analytically  !
 ! D14   D(1,3,7,24)           180.0            calculate D2E/DX2 analytically  !
 ! D15   D(25,3,7,5)           180.0            calculate D2E/DX2 analytically  !
 ! D16   D(25,3,7,24)            0.0            calculate D2E/DX2 analytically  !
 ! D17   D(2,4,5,7)              0.0            calculate D2E/DX2 analytically  !
 ! D18   D(2,4,5,8)            180.0            calculate D2E/DX2 analytically  !
 ! D19   D(6,4,5,7)            180.0            calculate D2E/DX2 analytically  !
 ! D20   D(6,4,5,8)              0.0            calculate D2E/DX2 analytically  !
 ! D21   D(2,4,6,10)             0.0            calculate D2E/DX2 analytically  !
 ! D22   D(2,4,6,13)           180.0            calculate D2E/DX2 analytically  !
 ! D23   D(5,4,6,10)           180.0            calculate D2E/DX2 analytically  !
 ! D24   D(5,4,6,13)             0.0            calculate D2E/DX2 analytically  !
 ! D25   D(4,5,7,3)              0.0            calculate D2E/DX2 analytically  !
 ! D26   D(4,5,7,24)           180.0            calculate D2E/DX2 analytically  !
 ! D27   D(8,5,7,3)            180.0            calculate D2E/DX2 analytically  !
 ! D28   D(8,5,7,24)             0.0            calculate D2E/DX2 analytically  !
 ! D29   D(4,5,8,17)             0.0            calculate D2E/DX2 analytically  !
 ! D30   D(4,5,8,26)           180.0            calculate D2E/DX2 analytically  !
 ! D31   D(7,5,8,17)           180.0            calculate D2E/DX2 analytically  !
 ! D32   D(7,5,8,26)             0.0            calculate D2E/DX2 analytically  !
 ! D33   D(4,6,10,9)             0.0            calculate D2E/DX2 analytically  !
 ! D34   D(4,6,10,12)          180.0            calculate D2E/DX2 analytically  !
 ! D35   D(13,6,10,9)          180.0            calculate D2E/DX2 analytically  !
 ! D36   D(13,6,10,12)           0.0            calculate D2E/DX2 analytically  !
 ! D37   D(4,6,13,17)            0.0            calculate D2E/DX2 analytically  !
 ! D38   D(4,6,13,18)          180.0            calculate D2E/DX2 analytically  !
 ! D39   D(10,6,13,17)         180.0            calculate D2E/DX2 analytically  !
 ! D40   D(10,6,13,18)           0.0            calculate D2E/DX2 analytically  !
 ! D41   D(5,8,17,13)            0.0            calculate D2E/DX2 analytically  !
 ! D42   D(5,8,17,19)          180.0            calculate D2E/DX2 analytically  !
 ! D43   D(26,8,17,13)         180.0            calculate D2E/DX2 analytically  !
 ! D44   D(26,8,17,19)           0.0            calculate D2E/DX2 analytically  !
 ! D45   D(11,9,10,6)          180.0            calculate D2E/DX2 analytically  !
 ! D46   D(11,9,10,12)           0.0            calculate D2E/DX2 analytically  !
 ! D47   D(34,9,10,6)            0.0            calculate D2E/DX2 analytically  !
 ! D48   D(34,9,10,12)         180.0            calculate D2E/DX2 analytically  !
 ! D49   D(10,9,11,14)           0.0            calculate D2E/DX2 analytically  !
 ! D50   D(10,9,11,31)         180.0            calculate D2E/DX2 analytically  !
 ! D51   D(34,9,11,14)         180.0            calculate D2E/DX2 analytically  !
 ! D52   D(34,9,11,31)           0.0            calculate D2E/DX2 analytically  !
 ! D53   D(6,10,12,15)         180.0            calculate D2E/DX2 analytically  !
 ! D54   D(6,10,12,16)           0.0            calculate D2E/DX2 analytically  !
 ! D55   D(9,10,12,15)           0.0            calculate D2E/DX2 analytically  !
 ! D56   D(9,10,12,16)         180.0            calculate D2E/DX2 analytically  !
 ! D57   D(9,11,14,15)           0.0            calculate D2E/DX2 analytically  !
 ! D58   D(9,11,14,32)         180.0            calculate D2E/DX2 analytically  !
 ! D59   D(31,11,14,15)        180.0            calculate D2E/DX2 analytically  !
 ! D60   D(31,11,14,32)          0.0            calculate D2E/DX2 analytically  !
 ! D61   D(10,12,15,14)          0.0            calculate D2E/DX2 analytically  !
 ! D62   D(10,12,15,33)        180.0            calculate D2E/DX2 analytically  !
 ! D63   D(16,12,15,14)        180.0            calculate D2E/DX2 analytically  !
 ! D64   D(16,12,15,33)          0.0            calculate D2E/DX2 analytically  !
 ! D65   D(10,12,16,18)          0.0            calculate D2E/DX2 analytically  !
 ! D66   D(10,12,16,27)        180.0            calculate D2E/DX2 analytically  !
 ! D67   D(15,12,16,18)        180.0            calculate D2E/DX2 analytically  !
 ! D68   D(15,12,16,27)          0.0            calculate D2E/DX2 analytically  !
 ! D69   D(6,13,17,8)            0.0            calculate D2E/DX2 analytically  !
 ! D70   D(6,13,17,19)         180.0            calculate D2E/DX2 analytically  !
 ! D71   D(18,13,17,8)         180.0            calculate D2E/DX2 analytically  !
 ! D72   D(18,13,17,19)          0.0            calculate D2E/DX2 analytically  !
 ! D73   D(6,13,18,16)           0.0            calculate D2E/DX2 analytically  !
 ! D74   D(6,13,18,20)         180.0            calculate D2E/DX2 analytically  !
 ! D75   D(17,13,18,16)        180.0            calculate D2E/DX2 analytically  !
 ! D76   D(17,13,18,20)          0.0            calculate D2E/DX2 analytically  !
 ! D77   D(11,14,15,12)          0.0            calculate D2E/DX2 analytically  !
 ! D78   D(11,14,15,33)        180.0            calculate D2E/DX2 analytically  !
 ! D79   D(32,14,15,12)        180.0            calculate D2E/DX2 analytically  !
 ! D80   D(32,14,15,33)          0.0            calculate D2E/DX2 analytically  !
 ! D81   D(12,16,18,13)          0.0            calculate D2E/DX2 analytically  !
 ! D82   D(12,16,18,20)        180.0            calculate D2E/DX2 analytically  !
 ! D83   D(27,16,18,13)        180.0            calculate D2E/DX2 analytically  !
 ! D84   D(27,16,18,20)          0.0            calculate D2E/DX2 analytically  !
 ! D85   D(8,17,19,21)         180.0            calculate D2E/DX2 analytically  !
 ! D86   D(8,17,19,30)           0.0            calculate D2E/DX2 analytically  !
 ! D87   D(13,17,19,21)          0.0            calculate D2E/DX2 analytically  !
 ! D88   D(13,17,19,30)        180.0            calculate D2E/DX2 analytically  !
 ! D89   D(13,18,20,21)          0.0            calculate D2E/DX2 analytically  !
 ! D90   D(13,18,20,28)        180.0            calculate D2E/DX2 analytically  !
 ! D91   D(16,18,20,21)        180.0            calculate D2E/DX2 analytically  !
 ! D92   D(16,18,20,28)          0.0            calculate D2E/DX2 analytically  !
 ! D93   D(17,19,21,20)          0.0            calculate D2E/DX2 analytically  !
 ! D94   D(17,19,21,29)        180.0            calculate D2E/DX2 analytically  !
 ! D95   D(30,19,21,20)        180.0            calculate D2E/DX2 analytically  !
 ! D96   D(30,19,21,29)          0.0            calculate D2E/DX2 analytically  !
 ! D97   D(18,20,21,19)          0.0            calculate D2E/DX2 analytically  !
 ! D98   D(18,20,21,29)        180.0            calculate D2E/DX2 analytically  !
 ! D99   D(28,20,21,19)        180.0            calculate D2E/DX2 analytically  !
 ! D100  D(28,20,21,29)          0.0            calculate D2E/DX2 analytically  !
 --------------------------------------------------------------------------------
 Trust Radius=3.00D-01 FncErr=1.00D-07 GrdErr=1.00D-06 EigMax=2.50D+02 EigMin=1.00D-04
 Number of steps in this run=    204 maximum allowed number of steps=    204.
 GradGradGradGradGradGradGradGradGradGradGradGradGradGradGradGradGradGrad

                          Input orientation:                          
 ---------------------------------------------------------------------
 Center     Atomic      Atomic             Coordinates (Angstroms)
 Number     Number       Type             X           Y           Z
 ---------------------------------------------------------------------
      1          6           0        0.000000    2.827765   -2.878836
      2          6           0        0.000000    1.559221   -2.319000
      3          6           0        0.000000    3.981635   -2.069730
      4          6           0        0.000000    1.317696   -0.912829
      5          6           0        0.000000    2.521638   -0.104650
      6          6           0        0.000000    0.000000   -0.240607
      7          6           0        0.000000    3.816633   -0.704307
      8          6           0        0.000000    2.448652    1.298611
      9          6           0        0.000000   -1.559221   -2.319000
     10          6           0        0.000000   -1.317696   -0.912829
     11          6           0        0.000000   -2.827765   -2.878836
     12          6           0        0.000000   -2.521638   -0.104650
     13          6           0        0.000000    0.000000    1.195541
     14          6           0        0.000000   -3.981635   -2.069730
     15          6           0        0.000000   -3.816633   -0.704307
     16          6           0        0.000000   -2.448652    1.298611
     17          6           0        0.000000    1.227893    1.965608
     18          6           0        0.000000   -1.227893    1.965608
     19          6           0        0.000000    1.200328    3.393108
     20          6           0        0.000000   -1.200328    3.393108
     21          6           0        0.000000    0.000000    4.095027
     22          1           0        0.000000    2.923878   -3.960066
     23          1           0        0.000000    0.755379   -3.023871
     24          1           0        0.000000    4.677840   -0.042498
     25          1           0        0.000000    4.970980   -2.514618
     26          1           0        0.000000    3.370713    1.872979
     27          1           0        0.000000   -3.370713    1.872979
     28          1           0        0.000000   -2.148745    3.921294
     29          1           0        0.000000    0.000000    5.180116
     30          1           0        0.000000    2.148745    3.921294
     31          1           0        0.000000   -2.923878   -3.960066
     32          1           0        0.000000   -4.970980   -2.514618
     33          1           0        0.000000   -4.677840   -0.042498
     34          1           0        0.000000   -0.755379   -3.025871
 ---------------------------------------------------------------------
                    Distance matrix (angstroms):
                    1          2          3          4          5
     1  C    0.000000
     2  C    1.386586   0.000000
     3  C    1.409279   2.435205   0.000000
     4  C    2.479010   1.426762   2.904306   0.000000
     5  C    2.791025   2.414455   2.448087   1.450045   0.000000
     6  C    3.867364   2.598247   4.381679   1.479258   2.525300
     7  C    2.388815   2.775454   1.375357   2.507622   1.427095
     8  C    4.194614   3.725345   3.700778   2.483854   1.405158
     9  C    4.422563   3.118442   5.546460   3.202182   4.642925
    10  C    4.588031   3.202182   5.424143   2.635392   3.923473
    11  C    5.655530   4.422563   6.857301   4.588031   6.025962
    12  C    6.025962   4.642925   6.793681   3.923473   5.043276
    13  C    4.959516   3.844889   5.149312   2.486272   2.837103
    14  C    6.857301   5.546460   7.963270   5.424143   6.793681
    15  C    6.991180   5.613113   7.916904   5.138562   6.366574
    16  C    6.729906   5.399088   7.259085   4.367590   5.164584
    17  C    5.101787   4.297400   4.885391   2.879838   2.441259
    18  C    6.317990   5.111347   6.589623   3.842580   4.283101
    19  C    6.479648   5.723372   6.130112   4.307536   3.739007
    20  C    7.454047   6.343760   7.529631   4.988140   5.107577
    21  C    7.525358   6.600827   7.338777   5.178315   4.898566
    22  H    1.085493   2.134335   2.166153   3.444630   3.876342
    23  H    2.077455   1.069114   3.364389   2.184651   3.411967
    24  H    3.386383   3.861120   2.143448   3.471029   2.157098
    25  H    2.173942   3.417362   1.084771   3.989011   3.436164
    26  H    4.782733   4.566639   3.989759   3.460579   2.152195
    27  H    7.810306   6.471239   8.342780   5.453614   6.215369
    28  H    8.426590   7.258807   8.571693   5.948526   6.166093
    29  H    8.540665   7.659498   8.271257   6.233803   5.855545
    30  H    6.833947   6.268078   6.265130   4.905037   4.043176
    31  H    5.852389   4.774021   7.159573   5.222701   6.672172
    32  H    7.807245   6.533130   8.963662   6.489466   7.870659
    33  H    8.023648   6.639532   8.893603   6.058377   7.199746
    34  H    3.586160   2.420132   4.832547   2.960167   4.390031
                    6          7          8          9         10
     6  C    0.000000
     7  C    3.844698   0.000000
     8  C    2.892246   2.425500   0.000000
     9  C    2.598247   5.613113   5.399088   0.000000
    10  C    1.479258   5.138562   4.367590   1.426762   0.000000
    11  C    3.867364   6.991180   6.729906   1.386586   2.479010
    12  C    2.525300   6.366574   5.164584   2.414455   1.450045
    13  C    1.436148   4.263345   2.450820   3.844889   2.486272
    14  C    4.381679   7.916904   7.259085   2.435205   2.904306
    15  C    3.844698   7.633266   6.577650   2.775454   2.507622
    16  C    2.892246   6.577650   4.897304   3.725345   2.483854
    17  C    2.524897   3.718874   1.391092   5.111347   3.842580
    18  C    2.524897   5.707512   3.736558   4.297400   2.879838
    19  C    3.826836   4.861467   2.438284   6.343760   4.988140
    20  C    3.826836   6.477554   4.207371   5.723372   4.307536
    21  C    4.335634   6.131908   3.716966   6.600827   5.178315
    22  H    4.731114   3.375941   5.280106   4.774021   5.222701
    23  H    2.883948   3.840788   4.642308   2.419549   2.958739
    24  H    4.682033   1.086126   2.601510   6.639532   6.058377
    25  H    5.466422   2.147031   4.571964   6.533130   6.489466
    26  H    3.978562   2.615578   1.086322   6.471239   5.453614
    27  H    3.978562   7.635466   5.847641   4.566639   3.460579
    28  H    4.683858   7.548637   5.292875   6.268078   4.905037
    29  H    5.420723   7.013781   4.589333   7.659498   6.233803
    30  H    4.683858   4.917117   2.639775   7.258807   5.948526
    31  H    4.731114   7.485617   7.517830   2.134335   3.444630
    32  H    5.466422   8.972144   8.342161   3.417362   3.989011
    33  H    4.682033   8.520215   7.251583   3.861120   3.471029
    34  H    2.885878   5.127665   5.382096   1.070434   2.186583
                   11         12         13         14         15
    11  C    0.000000
    12  C    2.791025   0.000000
    13  C    4.959516   2.837103   0.000000
    14  C    1.409279   2.448087   5.149312   0.000000
    15  C    2.388815   1.427095   4.263345   1.375357   0.000000
    16  C    4.194614   1.405158   2.450820   3.700778   2.425500
    17  C    6.317990   4.283101   1.449388   6.589623   5.707512
    18  C    5.101787   2.441259   1.449388   4.885391   3.718874
    19  C    7.454047   5.107577   2.504014   7.529631   6.477554
    20  C    6.479648   3.739007   2.504014   6.130112   4.861467
    21  C    7.525358   4.898566   2.899486   7.338777   6.131908
    22  H    5.852389   6.672172   5.927001   7.159573   7.485617
    23  H    3.586078   4.388700   4.286494   4.832151   5.126760
    24  H    8.023648   7.199746   4.838897   8.893603   8.520215
    25  H    7.807245   7.870659   6.202896   8.963662   8.972144
    26  H    7.810306   6.215369   3.438114   8.342780   7.635466
    27  H    4.782733   2.152195   3.438114   3.989759   2.615578
    28  H    6.833947   4.043176   3.470855   6.265130   4.917117
    29  H    8.540665   5.855545   3.984575   8.271257   7.013781
    30  H    8.426590   6.166093   3.470855   8.571693   7.548637
    31  H    1.085493   3.876342   5.927001   2.166153   3.375941
    32  H    2.173942   3.436164   6.202896   1.084771   2.147031
    33  H    3.386383   2.157098   4.838897   2.143448   1.086126
    34  H    2.077595   3.413679   4.288463   3.364957   3.841996
                   16         17         18         19         20
    16  C    0.000000
    17  C    3.736558   0.000000
    18  C    1.391092   2.455786   0.000000
    19  C    4.207371   1.427766   2.816738   0.000000
    20  C    2.438284   2.816738   1.427766   2.400656   0.000000
    21  C    3.716966   2.458078   2.458078   1.390495   1.390495
    22  H    7.517830   6.163601   7.235386   7.552469   8.430791
    23  H    5.380489   5.011803   5.369196   6.432387   6.708384
    24  H    7.251583   3.991820   6.237802   4.888402   6.808542
    25  H    8.342161   5.838075   7.648428   7.008498   8.543200
    26  H    5.847641   2.144821   4.599539   2.649786   4.817178
    27  H    1.086322   4.599539   2.144821   4.817178   2.649786
    28  H    2.639775   3.902101   2.161637   3.390468   1.085576
    29  H    4.589333   3.441044   3.441044   2.152716   2.152716
    30  H    5.292875   2.161637   3.902101   1.085576   3.390468
    31  H    5.280106   7.235386   6.163601   8.430791   7.552469
    32  H    4.571964   7.648428   5.838075   8.543200   7.008498
    33  H    2.601510   6.237802   3.991820   6.808542   4.888402
    34  H    4.644170   5.371055   5.013794   6.710297   6.434382
                   21         22         23         24         25
    21  C    0.000000
    22  H    8.569340   0.000000
    23  H    7.158862   2.361959   0.000000
    24  H    6.245102   4.292286   4.926894   0.000000
    25  H    8.270311   2.505982   4.246249   2.489439   0.000000
    26  H    4.037227   5.850135   5.551496   2.318972   4.670317
    27  H    4.037227   8.581742   6.403419   8.273346   9.425224
    28  H    2.155757   9.372691   7.527898   7.893916   9.597471
    29  H    1.085089   9.596457   8.238689   7.011268   9.160763
    30  H    2.155757   7.919385   7.083557   4.701911   7.027515
    31  H    8.569340   5.847756   3.796497   8.551810   8.026089
    32  H    8.270311   8.026089   5.748959   9.960477   9.941960
    33  H    6.245102   8.551810   6.197455   9.355680   9.960477
    34  H    7.160851   3.796005   1.510759   6.198418   5.749136
                   26         27         28         29         30
    26  H    0.000000
    27  H    6.741426   0.000000
    28  H    5.887275   2.385121   0.000000
    29  H    4.722167   4.722167   2.490329   0.000000
    30  H    2.385121   5.887275   4.297490   2.490329   0.000000
    31  H    8.581742   5.850135   7.919385   9.596457   9.372691
    32  H    9.425224   4.670317   7.027515   9.160763   9.597471
    33  H    8.273346   2.318972   4.701911   7.011268   7.893916
    34  H    6.404949   5.553261   7.085518   8.240681   7.529744
                   31         32         33         34
    31  H    0.000000
    32  H    2.505982   0.000000
    33  H    4.292286   2.489439   0.000000
    34  H    2.361167   4.246489   4.928105   0.000000
 Symmetry turned off by external request.
 Stoichiometry    C21H13
 Rotational constants (GHZ):           0.4144380           0.3294968           0.1835591
 Standard basis: 6-31G (6D, 7F)
   215 basis functions,   514 primitive gaussians,   215 cartesian basis functions
    70 alpha electrons       69 beta electrons
       nuclear repulsion energy      1458.8490192230 Hartrees.
 NAtoms=   34 NActive=   34 NUniq=   34 SFac= 1.00D+00 NAtFMM=   60 NAOKFM=F Big=F
 Integral buffers will be    131072 words long.
 Raffenetti 2 integral format.
 Two-electron integral symmetry is turned off.
 One-electron integrals computed using PRISM.
 NBasis=   215 RedAO= T EigKep=  1.92D-04  NBF=   215
 NBsUse=   215 1.00D-06 EigRej= -1.00D+00 NBFU=   215
 ExpMin= 1.61D-01 ExpMax= 3.05D+03 ExpMxC= 4.57D+02 IAcc=3 IRadAn=         5 AccDes= 0.00D+00
 Harris functional with IExCor=  402 and IRadAn=       5 diagonalized for initial guess.
 HarFok:  IExCor=  402 AccDes= 0.00D+00 IRadAn=         5 IDoV= 1 UseB2=F ITyADJ=14
 ICtDFT=  3500011 ScaDFX=  1.000000  1.000000  1.000000  1.000000
 FoFCou: FMM=F IPFlag=           0 FMFlag=      100000 FMFlg1=           0
         NFxFlg=           0 DoJE=T BraDBF=F KetDBF=T FulRan=T
         wScrn=  0.000000 ICntrl=       500 IOpCl=  0 I1Cent=   200000004 NGrid=           0
         NMat0=    1 NMatS0=      1 NMatT0=    0 NMatD0=    1 NMtDS0=    0 NMtDT0=    0
 Symmetry not used in FoFCou.
 Initial guess <Sx>= 0.0000 <Sy>= 0.0000 <Sz>= 0.5000 <S**2>= 0.7500 S= 0.5000
 Requested convergence on RMS density matrix=1.00D-08 within 128 cycles.
 Requested convergence on MAX density matrix=1.00D-06.
 Requested convergence on             energy=1.00D-06.
 No special actions if energy rises.
 Integral accuracy reduced to 1.0D-05 until final iterations.
 Initial convergence to 1.0D-05 achieved.  Increase integral accuracy.
 SCF Done:  E(UB3LYP) =  -807.894781219     A.U. after   22 cycles
            NFock= 22  Conv=0.69D-08     -V/T= 2.0055
 <Sx>= 0.0000 <Sy>= 0.0000 <Sz>= 0.5000 <S**2>= 0.8110 S= 0.5301
 <L.S>= 0.000000000000E+00
 Annihilation of the first spin contaminant:
 S**2 before annihilation     0.8110,   after     0.7532
 DoSCS=F DFT=T ScalE2(SS,OS)=  1.000000  1.000000
 Range of M.O.s used for correlation:     1   215
 NBasis=   215 NAE=    70 NBE=    69 NFC=     0 NFV=     0
 NROrb=    215 NOA=    70 NOB=    69 NVA=   145 NVB=   146

 **** Warning!!: The largest alpha MO coefficient is  0.24839059D+02


 **** Warning!!: The largest beta MO coefficient is  0.24776666D+02

 Symmetrizing basis deriv contribution to polar:
 IMax=3 JMax=2 DiffMx= 0.00D+00
 G2DrvN: will do    35 centers at a time, making    1 passes.
 Calling FoFCou, ICntrl=  3107 FMM=F I1Cent=   0 AccDes= 0.00D+00.
 End of G2Drv F.D. properties file   721 does not exist.
 End of G2Drv F.D. properties file   722 does not exist.
 End of G2Drv F.D. properties file   788 does not exist.
          IDoAtm=1111111111111111111111111111111111
          Differentiating once with respect to electric field.
                with respect to dipole field.
          Differentiating once with respect to nuclear coordinates.
 CalDSu exits because no D1Ps are significant.
          There are   105 degrees of freedom in the 1st order CPHF.  IDoFFX=6 NUNeed=     3.
    102 vectors produced by pass  0 Test12= 2.02D-14 1.00D-09 XBig12= 1.67D+03 2.35D+01.
 AX will form    48 AO Fock derivatives at one time.
    102 vectors produced by pass  1 Test12= 2.02D-14 1.00D-09 XBig12= 1.78D+02 2.13D+00.
    102 vectors produced by pass  2 Test12= 2.02D-14 1.00D-09 XBig12= 3.54D+00 3.04D-01.
    102 vectors produced by pass  3 Test12= 2.02D-14 1.00D-09 XBig12= 1.78D-02 2.26D-02.
    102 vectors produced by pass  4 Test12= 2.02D-14 1.00D-09 XBig12= 4.66D-05 9.32D-04.
    102 vectors produced by pass  5 Test12= 2.02D-14 1.00D-09 XBig12= 1.00D-07 3.41D-05.
     65 vectors produced by pass  6 Test12= 2.02D-14 1.00D-09 XBig12= 2.79D-10 1.37D-06.
      9 vectors produced by pass  7 Test12= 2.02D-14 1.00D-09 XBig12= 6.10D-13 7.51D-08.
      2 vectors produced by pass  8 Test12= 2.02D-14 1.00D-09 XBig12= 2.40D-15 3.76D-09.
 InvSVY:  IOpt=1 It=  1 EMax= 3.55D-14
 Solved reduced A of dimension   688 with   105 vectors.
 Isotropic polarizability for W=    0.000000      243.45 Bohr**3.
 End of Minotr F.D. properties file   721 does not exist.
 End of Minotr F.D. properties file   722 does not exist.
 End of Minotr F.D. properties file   788 does not exist.

 **********************************************************************

            Population analysis using the SCF density.

 **********************************************************************

 Alpha  occ. eigenvalues --  -10.21322 -10.20854 -10.20850 -10.20395 -10.19735
 Alpha  occ. eigenvalues --  -10.19733 -10.19612 -10.19612 -10.19048 -10.19044
 Alpha  occ. eigenvalues --  -10.18877 -10.18876 -10.18859 -10.18859 -10.18796
 Alpha  occ. eigenvalues --  -10.18795 -10.18710 -10.18692 -10.18691 -10.18550
 Alpha  occ. eigenvalues --  -10.18535  -0.89248  -0.86537  -0.85463  -0.81267
 Alpha  occ. eigenvalues --   -0.80769  -0.78239  -0.75003  -0.74808  -0.74310
 Alpha  occ. eigenvalues --   -0.72018  -0.67493  -0.64361  -0.62982  -0.62570
 Alpha  occ. eigenvalues --   -0.59746  -0.59240  -0.54987  -0.54570  -0.52481
 Alpha  occ. eigenvalues --   -0.52236  -0.49345  -0.47852  -0.46924  -0.46452
 Alpha  occ. eigenvalues --   -0.45685  -0.44682  -0.44179  -0.42122  -0.41598
 Alpha  occ. eigenvalues --   -0.41320  -0.40675  -0.40274  -0.39083  -0.38149
 Alpha  occ. eigenvalues --   -0.37897  -0.36985  -0.36636  -0.36068  -0.34182
 Alpha  occ. eigenvalues --   -0.32837  -0.32020  -0.31545  -0.31338  -0.29046
 Alpha  occ. eigenvalues --   -0.25453  -0.25135  -0.24603  -0.21245  -0.15814
 Alpha virt. eigenvalues --   -0.05459  -0.01223  -0.01051   0.00592   0.03338
 Alpha virt. eigenvalues --    0.06636   0.07585   0.08968   0.09688   0.10489
 Alpha virt. eigenvalues --    0.12029   0.12855   0.15139   0.15406   0.15747
 Alpha virt. eigenvalues --    0.16573   0.16981   0.17049   0.18010   0.19014
 Alpha virt. eigenvalues --    0.19678   0.22327   0.23456   0.23893   0.25798
 Alpha virt. eigenvalues --    0.27277   0.27705   0.28530   0.29024   0.29839
 Alpha virt. eigenvalues --    0.31518   0.32323   0.32750   0.33401   0.35652
 Alpha virt. eigenvalues --    0.37176   0.38204   0.42720   0.44295   0.46271
 Alpha virt. eigenvalues --    0.46894   0.48542   0.49563   0.51907   0.52003
 Alpha virt. eigenvalues --    0.52080   0.52180   0.52534   0.54145   0.55163
 Alpha virt. eigenvalues --    0.55258   0.56210   0.56629   0.56773   0.57102
 Alpha virt. eigenvalues --    0.58470   0.59955   0.60107   0.60583   0.60875
 Alpha virt. eigenvalues --    0.61051   0.61408   0.61658   0.61695   0.62256
 Alpha virt. eigenvalues --    0.63533   0.64076   0.64286   0.65045   0.65235
 Alpha virt. eigenvalues --    0.65571   0.65987   0.66028   0.66187   0.66634
 Alpha virt. eigenvalues --    0.68725   0.68887   0.69052   0.69731   0.70293
 Alpha virt. eigenvalues --    0.73683   0.75099   0.75153   0.78934   0.82080
 Alpha virt. eigenvalues --    0.82510   0.82988   0.84214   0.84577   0.84599
 Alpha virt. eigenvalues --    0.85103   0.86489   0.87227   0.88390   0.89384
 Alpha virt. eigenvalues --    0.91730   0.92020   0.93277   0.93347   0.95815
 Alpha virt. eigenvalues --    0.95890   0.97094   0.97796   0.97990   1.00616
 Alpha virt. eigenvalues --    1.01895   1.04752   1.05949   1.06251   1.07518
 Alpha virt. eigenvalues --    1.08499   1.09641   1.10767   1.11048   1.15969
 Alpha virt. eigenvalues --    1.16207   1.16995   1.18762   1.19508   1.19920
 Alpha virt. eigenvalues --    1.23584   1.23653   1.26647   1.27871   1.28797
 Alpha virt. eigenvalues --    1.31276   1.36913   1.38660   1.41388   1.46020
 Alpha virt. eigenvalues --    1.46176   1.50550   1.52001   1.53224   1.53510
 Alpha virt. eigenvalues --    1.55619   1.57802   1.62806   1.63802   1.68679
 Alpha virt. eigenvalues --    1.91109   1.96052   1.98225   1.98268   2.03525
  Beta  occ. eigenvalues --  -10.21473 -10.20674 -10.20670 -10.20301 -10.19861
  Beta  occ. eigenvalues --  -10.19859 -10.19793 -10.19792 -10.18941 -10.18802
  Beta  occ. eigenvalues --  -10.18801 -10.18721 -10.18720 -10.18703 -10.18701
  Beta  occ. eigenvalues --  -10.18640 -10.18626 -10.18533 -10.18531 -10.18374
  Beta  occ. eigenvalues --  -10.18373  -0.89057  -0.86343  -0.85229  -0.80878
  Beta  occ. eigenvalues --   -0.80530  -0.77952  -0.74814  -0.74499  -0.74227
  Beta  occ. eigenvalues --   -0.71819  -0.66498  -0.64193  -0.62855  -0.62455
  Beta  occ. eigenvalues --   -0.59651  -0.59048  -0.54801  -0.54350  -0.52392
  Beta  occ. eigenvalues --   -0.52134  -0.49153  -0.47652  -0.46729  -0.46371
  Beta  occ. eigenvalues --   -0.45628  -0.44642  -0.44126  -0.41964  -0.41456
  Beta  occ. eigenvalues --   -0.40864  -0.40583  -0.40194  -0.38862  -0.38092
  Beta  occ. eigenvalues --   -0.37380  -0.36870  -0.36019  -0.35972  -0.34081
  Beta  occ. eigenvalues --   -0.32726  -0.31520  -0.30913  -0.30868  -0.28074
  Beta  occ. eigenvalues --   -0.25068  -0.24390  -0.23965  -0.20475
  Beta virt. eigenvalues --   -0.09280  -0.04564  -0.00841  -0.00476   0.01194
  Beta virt. eigenvalues --    0.04163   0.07221   0.08596   0.08974   0.09846
  Beta virt. eigenvalues --    0.10569   0.12121   0.13057   0.15468   0.15848
  Beta virt. eigenvalues --    0.15944   0.16641   0.17159   0.17407   0.18107
  Beta virt. eigenvalues --    0.19206   0.19826   0.22374   0.23825   0.23976
  Beta virt. eigenvalues --    0.25872   0.27605   0.27793   0.28654   0.29043
  Beta virt. eigenvalues --    0.29881   0.31626   0.32407   0.32891   0.33455
  Beta virt. eigenvalues --    0.35682   0.37264   0.38392   0.42796   0.44534
  Beta virt. eigenvalues --    0.46456   0.47067   0.48681   0.49947   0.52124
  Beta virt. eigenvalues --    0.52372   0.52416   0.52600   0.52607   0.54251
  Beta virt. eigenvalues --    0.55277   0.56371   0.56460   0.56902   0.57172
  Beta virt. eigenvalues --    0.57298   0.58551   0.60040   0.60177   0.60707
  Beta virt. eigenvalues --    0.60961   0.61465   0.61804   0.61902   0.62391
  Beta virt. eigenvalues --    0.62834   0.63857   0.64378   0.64391   0.65161
  Beta virt. eigenvalues --    0.65309   0.65732   0.65809   0.66127   0.66314
  Beta virt. eigenvalues --    0.66521   0.68924   0.69202   0.69806   0.70009
  Beta virt. eigenvalues --    0.70565   0.74505   0.74998   0.75326   0.79041
  Beta virt. eigenvalues --    0.82344   0.82811   0.83234   0.84300   0.84634
  Beta virt. eigenvalues --    0.84802   0.85198   0.86691   0.87257   0.88456
  Beta virt. eigenvalues --    0.89545   0.91796   0.92073   0.93330   0.93410
  Beta virt. eigenvalues --    0.95945   0.95992   0.97205   0.97974   0.98106
  Beta virt. eigenvalues --    1.00669   1.02493   1.04838   1.06013   1.06384
  Beta virt. eigenvalues --    1.07936   1.08615   1.09680   1.11040   1.11196
  Beta virt. eigenvalues --    1.16103   1.16252   1.17056   1.18848   1.19600
  Beta virt. eigenvalues --    1.20097   1.23651   1.23793   1.26712   1.28021
  Beta virt. eigenvalues --    1.28878   1.31353   1.36968   1.38920   1.41528
  Beta virt. eigenvalues --    1.46075   1.46269   1.50621   1.52175   1.53298
  Beta virt. eigenvalues --    1.53566   1.55762   1.57908   1.62969   1.63942
  Beta virt. eigenvalues --    1.68742   1.91315   1.96265   1.98343   1.98371
  Beta virt. eigenvalues --    2.03722
          Condensed to atoms (all electrons):
               1          2          3          4          5          6
     1  C    4.933331   0.512729   0.498484  -0.035997  -0.026040   0.005253
     2  C    0.512729   5.103675  -0.040814   0.430678  -0.062579  -0.036950
     3  C    0.498484  -0.040814   4.938338  -0.032980  -0.026047  -0.000304
     4  C   -0.035997   0.430678  -0.032980   5.014954   0.441673   0.335789
     5  C   -0.026040  -0.062579  -0.026047   0.441673   4.927340  -0.015690
     6  C    0.005253  -0.036950  -0.000304   0.335789  -0.015690   5.217558
     7  C   -0.057252  -0.049693   0.508761  -0.035986   0.446790   0.008194
     8  C    0.000396   0.013058   0.007607  -0.045413   0.365689  -0.061350
     9  C    0.000492   0.000442  -0.000010  -0.019626  -0.000176  -0.036891
    10  C    0.000602  -0.019639  -0.000007  -0.044394   0.006361   0.335776
    11  C   -0.000030   0.000493   0.000000   0.000602   0.000003   0.005248
    12  C    0.000003  -0.000176   0.000000   0.006350  -0.000210  -0.015669
    13  C   -0.000223   0.010339  -0.000005  -0.042973  -0.028359   0.339197
    14  C    0.000000  -0.000010  -0.000000  -0.000007   0.000000  -0.000304
    15  C   -0.000000   0.000013  -0.000000  -0.000142  -0.000001   0.008201
    16  C   -0.000000  -0.000007   0.000000  -0.000076   0.000044  -0.061364
    17  C    0.000031  -0.000372  -0.000446  -0.022846  -0.018019  -0.044459
    18  C   -0.000000  -0.000097   0.000000   0.008221   0.000019  -0.044501
    19  C   -0.000000  -0.000005   0.000003   0.000784   0.006677   0.007752
    20  C   -0.000000  -0.000001  -0.000000  -0.000193   0.000025   0.007751
    21  C   -0.000000   0.000000  -0.000000   0.000024  -0.000432  -0.001009
    22  H    0.352662  -0.031828  -0.035274   0.003406   0.000759  -0.000180
    23  H   -0.029774   0.342844   0.004622  -0.040681   0.003135  -0.000062
    24  H    0.004499   0.000524  -0.037206   0.003343  -0.043198  -0.000200
    25  H   -0.031804   0.003944   0.346842   0.001051   0.002858   0.000012
    26  H    0.000040  -0.000328   0.000400   0.002445  -0.038518   0.001496
    27  H    0.000000   0.000000   0.000000   0.000020  -0.000001   0.001497
    28  H    0.000000  -0.000000  -0.000000   0.000001  -0.000000  -0.000156
    29  H    0.000000   0.000000  -0.000000  -0.000000   0.000003   0.000015
    30  H    0.000000  -0.000000  -0.000000   0.000002   0.000499  -0.000156
    31  H    0.000000   0.000037  -0.000000   0.000002   0.000000  -0.000180
    32  H   -0.000000   0.000000   0.000000   0.000000   0.000000   0.000012
    33  H    0.000000  -0.000000  -0.000000   0.000001  -0.000000  -0.000200
    34  H    0.000980  -0.007481  -0.000008  -0.003835  -0.000195  -0.000004
               7          8          9         10         11         12
     1  C   -0.057252   0.000396   0.000492   0.000602  -0.000030   0.000003
     2  C   -0.049693   0.013058   0.000442  -0.019639   0.000493  -0.000176
     3  C    0.508761   0.007607  -0.000010  -0.000007   0.000000   0.000000
     4  C   -0.035986  -0.045413  -0.019626  -0.044394   0.000602   0.006350
     5  C    0.446790   0.365689  -0.000176   0.006361   0.000003  -0.000210
     6  C    0.008194  -0.061350  -0.036891   0.335776   0.005248  -0.015669
     7  C    5.032927  -0.040475   0.000013  -0.000142  -0.000000  -0.000001
     8  C   -0.040475   5.362354  -0.000007  -0.000077  -0.000000   0.000044
     9  C    0.000013  -0.000007   5.104396   0.430309   0.512585  -0.062488
    10  C   -0.000142  -0.000077   0.430309   5.015356  -0.036151   0.441807
    11  C   -0.000000  -0.000000   0.512585  -0.036151   4.933611  -0.026007
    12  C   -0.000001   0.000044  -0.062488   0.441807  -0.026007   4.926993
    13  C    0.001016  -0.035893   0.010327  -0.043091  -0.000223  -0.028334
    14  C   -0.000000   0.000000  -0.040828  -0.032947   0.498562  -0.026063
    15  C   -0.000000   0.000000  -0.049779  -0.035886  -0.057205   0.446707
    16  C    0.000000  -0.000435   0.013066  -0.045461   0.000394   0.365771
    17  C    0.006815   0.377425  -0.000098   0.008222  -0.000000   0.000019
    18  C   -0.000010   0.012080  -0.000369  -0.022832   0.000031  -0.018033
    19  C   -0.000322  -0.043683  -0.000001  -0.000193  -0.000000   0.000024
    20  C    0.000000   0.001041  -0.000005   0.000784  -0.000000   0.006676
    21  C    0.000003   0.007002   0.000000   0.000024  -0.000000  -0.000432
    22  H    0.004548  -0.000002   0.000037   0.000002   0.000000   0.000000
    23  H    0.001269  -0.000234  -0.007299  -0.003845   0.000972  -0.000196
    24  H    0.353608  -0.004838  -0.000000   0.000001   0.000000  -0.000000
    25  H   -0.027451  -0.000216   0.000000   0.000000  -0.000000   0.000000
    26  H   -0.002523   0.344410   0.000000   0.000020   0.000000  -0.000001
    27  H   -0.000000   0.000003  -0.000329   0.002445   0.000040  -0.038515
    28  H    0.000000   0.000001  -0.000000   0.000002   0.000000   0.000499
    29  H   -0.000000  -0.000232   0.000000  -0.000000   0.000000   0.000003
    30  H    0.000008  -0.005161  -0.000000   0.000001   0.000000  -0.000000
    31  H    0.000000  -0.000000  -0.031814   0.003406   0.352652   0.000760
    32  H   -0.000000   0.000000   0.003954   0.001048  -0.031822   0.002862
    33  H    0.000000  -0.000000   0.000522   0.003346   0.004501  -0.043199
    34  H   -0.000003  -0.000002   0.342827  -0.040443  -0.029714   0.003093
              13         14         15         16         17         18
     1  C   -0.000223   0.000000  -0.000000  -0.000000   0.000031  -0.000000
     2  C    0.010339  -0.000010   0.000013  -0.000007  -0.000372  -0.000097
     3  C   -0.000005  -0.000000  -0.000000   0.000000  -0.000446   0.000000
     4  C   -0.042973  -0.000007  -0.000142  -0.000076  -0.022846   0.008221
     5  C   -0.028359   0.000000  -0.000001   0.000044  -0.018019   0.000019
     6  C    0.339197  -0.000304   0.008201  -0.061364  -0.044459  -0.044501
     7  C    0.001016  -0.000000  -0.000000   0.000000   0.006815  -0.000010
     8  C   -0.035893   0.000000   0.000000  -0.000435   0.377425   0.012080
     9  C    0.010327  -0.040828  -0.049779   0.013066  -0.000098  -0.000369
    10  C   -0.043091  -0.032947  -0.035886  -0.045461   0.008222  -0.022832
    11  C   -0.000223   0.498562  -0.057205   0.000394  -0.000000   0.000031
    12  C   -0.028334  -0.026063   0.446707   0.365771   0.000019  -0.018033
    13  C    5.224134  -0.000005   0.001017  -0.035891   0.386456   0.386485
    14  C   -0.000005   4.938152   0.508744   0.007612   0.000000  -0.000446
    15  C    0.001017   0.508744   5.033007  -0.040478  -0.000010   0.006813
    16  C   -0.035891   0.007612  -0.040478   5.362363   0.012081   0.377429
    17  C    0.386456   0.000000  -0.000010   0.012081   4.951309  -0.035984
    18  C    0.386485  -0.000446   0.006813   0.377429  -0.035984   4.951317
    19  C   -0.048135  -0.000000   0.000000   0.001041   0.440970  -0.033374
    20  C   -0.048131   0.000003  -0.000322  -0.043684  -0.033371   0.440973
    21  C   -0.033195  -0.000000   0.000003   0.007002  -0.015824  -0.015821
    22  H    0.000001  -0.000000   0.000000  -0.000000  -0.000000  -0.000000
    23  H    0.000139  -0.000007  -0.000003  -0.000002   0.000001   0.000006
    24  H    0.000032  -0.000000   0.000000  -0.000000   0.000635   0.000000
    25  H   -0.000001   0.000000  -0.000000   0.000000   0.000005  -0.000000
    26  H    0.002268   0.000000  -0.000000   0.000003  -0.035974  -0.000304
    27  H    0.002266   0.000400  -0.002522   0.344407  -0.000305  -0.035970
    28  H    0.003802  -0.000000   0.000008  -0.005162   0.000522  -0.041148
    29  H    0.001374  -0.000000  -0.000000  -0.000232   0.002519   0.002519
    30  H    0.003802  -0.000000   0.000000   0.000001  -0.041147   0.000522
    31  H    0.000001  -0.035250   0.004548  -0.000002  -0.000000  -0.000000
    32  H   -0.000001   0.346853  -0.027465  -0.000216  -0.000000   0.000005
    33  H    0.000032  -0.037212   0.353612  -0.004841   0.000000   0.000635
    34  H    0.000137   0.004601   0.001267  -0.000233   0.000006   0.000001
              19         20         21         22         23         24
     1  C   -0.000000  -0.000000  -0.000000   0.352662  -0.029774   0.004499
     2  C   -0.000005  -0.000001   0.000000  -0.031828   0.342844   0.000524
     3  C    0.000003  -0.000000  -0.000000  -0.035274   0.004622  -0.037206
     4  C    0.000784  -0.000193   0.000024   0.003406  -0.040681   0.003343
     5  C    0.006677   0.000025  -0.000432   0.000759   0.003135  -0.043198
     6  C    0.007752   0.007751  -0.001009  -0.000180  -0.000062  -0.000200
     7  C   -0.000322   0.000000   0.000003   0.004548   0.001269   0.353608
     8  C   -0.043683   0.001041   0.007002  -0.000002  -0.000234  -0.004838
     9  C   -0.000001  -0.000005   0.000000   0.000037  -0.007299  -0.000000
    10  C   -0.000193   0.000784   0.000024   0.000002  -0.003845   0.000001
    11  C   -0.000000  -0.000000  -0.000000   0.000000   0.000972   0.000000
    12  C    0.000024   0.006676  -0.000432   0.000000  -0.000196  -0.000000
    13  C   -0.048135  -0.048131  -0.033195   0.000001   0.000139   0.000032
    14  C   -0.000000   0.000003  -0.000000  -0.000000  -0.000007  -0.000000
    15  C    0.000000  -0.000322   0.000003   0.000000  -0.000003   0.000000
    16  C    0.001041  -0.043684   0.007002  -0.000000  -0.000002  -0.000000
    17  C    0.440970  -0.033371  -0.015824  -0.000000   0.000001   0.000635
    18  C   -0.033374   0.440973  -0.015821  -0.000000   0.000006   0.000000
    19  C    5.067702  -0.066222   0.476202   0.000000  -0.000000   0.000002
    20  C   -0.066222   5.067691   0.476203   0.000000   0.000000   0.000000
    21  C    0.476202   0.476203   4.972642  -0.000000  -0.000000  -0.000000
    22  H    0.000000   0.000000  -0.000000   0.589676  -0.005152  -0.000196
    23  H   -0.000000   0.000000  -0.000000  -0.005152   0.593107   0.000015
    24  H    0.000002   0.000000  -0.000000  -0.000196   0.000015   0.590497
    25  H   -0.000000   0.000000  -0.000000  -0.003382  -0.000232  -0.003893
    26  H   -0.002639   0.000012   0.000400   0.000000   0.000002   0.006288
    27  H    0.000012  -0.002637   0.000400  -0.000000   0.000000  -0.000000
    28  H    0.004458   0.353084  -0.036272  -0.000000  -0.000000   0.000000
    29  H   -0.026844  -0.026844   0.345490   0.000000  -0.000000  -0.000000
    30  H    0.353084   0.004458  -0.036272   0.000000   0.000000   0.000006
    31  H    0.000000   0.000000  -0.000000   0.000000  -0.000044   0.000000
    32  H    0.000000  -0.000000  -0.000000  -0.000000   0.000000   0.000000
    33  H    0.000000   0.000002  -0.000000   0.000000   0.000000  -0.000000
    34  H    0.000000  -0.000000  -0.000000  -0.000044   0.013186   0.000000
              25         26         27         28         29         30
     1  C   -0.031804   0.000040   0.000000   0.000000   0.000000   0.000000
     2  C    0.003944  -0.000328   0.000000  -0.000000   0.000000  -0.000000
     3  C    0.346842   0.000400   0.000000  -0.000000  -0.000000  -0.000000
     4  C    0.001051   0.002445   0.000020   0.000001  -0.000000   0.000002
     5  C    0.002858  -0.038518  -0.000001  -0.000000   0.000003   0.000499
     6  C    0.000012   0.001496   0.001497  -0.000156   0.000015  -0.000156
     7  C   -0.027451  -0.002523  -0.000000   0.000000  -0.000000   0.000008
     8  C   -0.000216   0.344410   0.000003   0.000001  -0.000232  -0.005161
     9  C    0.000000   0.000000  -0.000329  -0.000000   0.000000  -0.000000
    10  C    0.000000   0.000020   0.002445   0.000002  -0.000000   0.000001
    11  C   -0.000000   0.000000   0.000040   0.000000   0.000000   0.000000
    12  C    0.000000  -0.000001  -0.038515   0.000499   0.000003  -0.000000
    13  C   -0.000001   0.002268   0.002266   0.003802   0.001374   0.003802
    14  C    0.000000   0.000000   0.000400  -0.000000  -0.000000  -0.000000
    15  C   -0.000000  -0.000000  -0.002522   0.000008  -0.000000   0.000000
    16  C    0.000000   0.000003   0.344407  -0.005162  -0.000232   0.000001
    17  C    0.000005  -0.035974  -0.000305   0.000522   0.002519  -0.041147
    18  C   -0.000000  -0.000304  -0.035970  -0.041148   0.002519   0.000522
    19  C   -0.000000  -0.002639   0.000012   0.004458  -0.026844   0.353084
    20  C    0.000000   0.000012  -0.002637   0.353084  -0.026844   0.004458
    21  C   -0.000000   0.000400   0.000400  -0.036272   0.345490  -0.036272
    22  H   -0.003382   0.000000  -0.000000  -0.000000   0.000000   0.000000
    23  H   -0.000232   0.000002   0.000000  -0.000000  -0.000000   0.000000
    24  H   -0.003893   0.006288  -0.000000   0.000000  -0.000000   0.000006
    25  H    0.583307  -0.000017   0.000000   0.000000  -0.000000   0.000000
    26  H   -0.000017   0.582192  -0.000000  -0.000000  -0.000010   0.005777
    27  H    0.000000  -0.000000   0.582177   0.005776  -0.000010  -0.000000
    28  H    0.000000  -0.000000   0.005776   0.590842  -0.003523  -0.000186
    29  H   -0.000000  -0.000010  -0.000010  -0.003523   0.580667  -0.003523
    30  H    0.000000   0.005777  -0.000000  -0.000186  -0.003523   0.590839
    31  H   -0.000000  -0.000000   0.000000   0.000000   0.000000  -0.000000
    32  H   -0.000000   0.000000  -0.000017   0.000000  -0.000000   0.000000
    33  H    0.000000  -0.000000   0.006288   0.000006  -0.000000   0.000000
    34  H    0.000000   0.000000   0.000001   0.000000  -0.000000  -0.000000
              31         32         33         34
     1  C    0.000000  -0.000000   0.000000   0.000980
     2  C    0.000037   0.000000  -0.000000  -0.007481
     3  C   -0.000000   0.000000  -0.000000  -0.000008
     4  C    0.000002   0.000000   0.000001  -0.003835
     5  C    0.000000   0.000000  -0.000000  -0.000195
     6  C   -0.000180   0.000012  -0.000200  -0.000004
     7  C    0.000000  -0.000000   0.000000  -0.000003
     8  C   -0.000000   0.000000  -0.000000  -0.000002
     9  C   -0.031814   0.003954   0.000522   0.342827
    10  C    0.003406   0.001048   0.003346  -0.040443
    11  C    0.352652  -0.031822   0.004501  -0.029714
    12  C    0.000760   0.002862  -0.043199   0.003093
    13  C    0.000001  -0.000001   0.000032   0.000137
    14  C   -0.035250   0.346853  -0.037212   0.004601
    15  C    0.004548  -0.027465   0.353612   0.001267
    16  C   -0.000002  -0.000216  -0.004841  -0.000233
    17  C   -0.000000  -0.000000   0.000000   0.000006
    18  C   -0.000000   0.000005   0.000635   0.000001
    19  C    0.000000   0.000000   0.000000   0.000000
    20  C    0.000000  -0.000000   0.000002  -0.000000
    21  C   -0.000000  -0.000000  -0.000000  -0.000000
    22  H    0.000000  -0.000000   0.000000  -0.000044
    23  H   -0.000044   0.000000   0.000000   0.013186
    24  H    0.000000   0.000000  -0.000000   0.000000
    25  H   -0.000000  -0.000000   0.000000   0.000000
    26  H   -0.000000   0.000000  -0.000000   0.000000
    27  H    0.000000  -0.000017   0.006288   0.000001
    28  H    0.000000   0.000000   0.000006   0.000000
    29  H    0.000000  -0.000000  -0.000000  -0.000000
    30  H   -0.000000   0.000000   0.000000  -0.000000
    31  H    0.589643  -0.003384  -0.000196  -0.005148
    32  H   -0.003384   0.583327  -0.003895  -0.000232
    33  H   -0.000196  -0.003895   0.590493   0.000015
    34  H   -0.005148  -0.000232   0.000015   0.592140
          Atomic-Atomic Spin Densities.
               1          2          3          4          5          6
     1  C    0.139371  -0.000405  -0.003040  -0.003947   0.000518  -0.000022
     2  C   -0.000405  -0.092752  -0.000343   0.002236  -0.000922   0.002023
     3  C   -0.003040  -0.000343  -0.079544   0.000443   0.000054  -0.000003
     4  C   -0.003947   0.002236   0.000443   0.165599   0.002639  -0.000412
     5  C    0.000518  -0.000922   0.000054   0.002639  -0.118186  -0.000343
     6  C   -0.000022   0.002023  -0.000003  -0.000412  -0.000343  -0.151498
     7  C   -0.004402   0.000562   0.001273   0.002542  -0.002035  -0.000090
     8  C    0.000171   0.000085   0.000087  -0.006500  -0.014243  -0.000755
     9  C   -0.000007  -0.000153   0.000000   0.000114  -0.000003   0.002024
    10  C    0.000044   0.000114   0.000000  -0.004223  -0.000061  -0.000421
    11  C   -0.000001  -0.000007   0.000000   0.000044   0.000000  -0.000022
    12  C    0.000000  -0.000003  -0.000000  -0.000062   0.000002  -0.000347
    13  C   -0.000007  -0.000055   0.000000  -0.000127   0.001406   0.004625
    14  C    0.000000   0.000000  -0.000000   0.000000  -0.000000  -0.000003
    15  C    0.000000   0.000000   0.000000  -0.000008   0.000000  -0.000090
    16  C   -0.000000  -0.000002  -0.000000   0.000089   0.000006  -0.000754
    17  C   -0.000001  -0.000016   0.000006   0.000845  -0.004515   0.001726
    18  C   -0.000000   0.000003   0.000000  -0.000008  -0.000037   0.001725
    19  C   -0.000000   0.000001   0.000000   0.000194   0.000057  -0.000064
    20  C    0.000000   0.000000  -0.000000  -0.000032   0.000001  -0.000064
    21  C    0.000000  -0.000000  -0.000000  -0.000002   0.000012   0.000047
    22  H    0.000601  -0.000075   0.000068   0.000037  -0.000025   0.000002
    23  H   -0.000248  -0.000022  -0.000027  -0.000407  -0.000058   0.000200
    24  H    0.000064  -0.000032   0.000020   0.000057   0.000176   0.000006
    25  H   -0.000290  -0.000010   0.000072   0.000002  -0.000027  -0.000000
    26  H   -0.000002   0.000013  -0.000005   0.000076  -0.000508  -0.000082
    27  H   -0.000000  -0.000000  -0.000000  -0.000000  -0.000000  -0.000082
    28  H   -0.000000  -0.000000   0.000000   0.000000  -0.000000   0.000017
    29  H    0.000000   0.000000  -0.000000   0.000000   0.000000  -0.000001
    30  H    0.000000  -0.000000  -0.000000  -0.000004   0.000004   0.000017
    31  H   -0.000000  -0.000000  -0.000000  -0.000000  -0.000000   0.000002
    32  H    0.000000  -0.000000   0.000000   0.000000  -0.000000  -0.000000
    33  H   -0.000000   0.000000  -0.000000   0.000000  -0.000000   0.000006
    34  H    0.000009  -0.000028   0.000000  -0.000011  -0.000003   0.000199
               7          8          9         10         11         12
     1  C   -0.004402   0.000171  -0.000007   0.000044  -0.000001   0.000000
     2  C    0.000562   0.000085  -0.000153   0.000114  -0.000007  -0.000003
     3  C    0.001273   0.000087   0.000000   0.000000   0.000000  -0.000000
     4  C    0.002542  -0.006500   0.000114  -0.004223   0.000044  -0.000062
     5  C   -0.002035  -0.014243  -0.000003  -0.000061   0.000000   0.000002
     6  C   -0.000090  -0.000755   0.002024  -0.000421  -0.000022  -0.000347
     7  C    0.127666  -0.009796   0.000000  -0.000008   0.000000   0.000000
     8  C   -0.009796   0.397255  -0.000002   0.000089  -0.000000   0.000006
     9  C    0.000000  -0.000002  -0.092756   0.002232  -0.000405  -0.000920
    10  C   -0.000008   0.000089   0.002232   0.165618  -0.003949   0.002638
    11  C    0.000000  -0.000000  -0.000405  -0.003949   0.139362   0.000517
    12  C    0.000000   0.000006  -0.000920   0.002638   0.000517  -0.118186
    13  C    0.000041   0.000366  -0.000055  -0.000129  -0.000007   0.001407
    14  C    0.000000  -0.000000  -0.000340   0.000441  -0.003041   0.000057
    15  C   -0.000000   0.000000   0.000561   0.002544  -0.004401  -0.002038
    16  C    0.000000  -0.000066   0.000085  -0.006502   0.000171  -0.014238
    17  C   -0.000036  -0.011561   0.000003  -0.000008  -0.000000  -0.000037
    18  C    0.000000  -0.000120  -0.000016   0.000846  -0.000001  -0.004517
    19  C    0.000010  -0.018626   0.000000  -0.000032   0.000000   0.000001
    20  C   -0.000000   0.000360   0.000001   0.000194  -0.000000   0.000057
    21  C    0.000000  -0.000106  -0.000000  -0.000002   0.000000   0.000012
    22  H    0.000041   0.000000  -0.000000  -0.000000  -0.000000  -0.000000
    23  H    0.000029  -0.000008  -0.000027  -0.000010   0.000009  -0.000003
    24  H    0.000715  -0.000386   0.000000   0.000000  -0.000000  -0.000000
    25  H   -0.000276  -0.000003  -0.000000   0.000000   0.000000  -0.000000
    26  H   -0.000184   0.003878  -0.000000  -0.000000  -0.000000  -0.000000
    27  H    0.000000   0.000000   0.000013   0.000076  -0.000002  -0.000508
    28  H   -0.000000   0.000000  -0.000000  -0.000004   0.000000   0.000004
    29  H    0.000000  -0.000002   0.000000   0.000000   0.000000   0.000000
    30  H    0.000000  -0.000369  -0.000000   0.000000  -0.000000  -0.000000
    31  H    0.000000  -0.000000  -0.000075   0.000037   0.000600  -0.000025
    32  H   -0.000000   0.000000  -0.000010   0.000002  -0.000290  -0.000027
    33  H   -0.000000   0.000000  -0.000032   0.000057   0.000064   0.000175
    34  H   -0.000001   0.000000  -0.000021  -0.000406  -0.000246  -0.000057
              13         14         15         16         17         18
     1  C   -0.000007   0.000000   0.000000  -0.000000  -0.000001  -0.000000
     2  C   -0.000055   0.000000   0.000000  -0.000002  -0.000016   0.000003
     3  C    0.000000  -0.000000   0.000000  -0.000000   0.000006   0.000000
     4  C   -0.000127   0.000000  -0.000008   0.000089   0.000845  -0.000008
     5  C    0.001406  -0.000000   0.000000   0.000006  -0.004515  -0.000037
     6  C    0.004625  -0.000003  -0.000090  -0.000754   0.001726   0.001725
     7  C    0.000041   0.000000  -0.000000   0.000000  -0.000036   0.000000
     8  C    0.000366  -0.000000   0.000000  -0.000066  -0.011561  -0.000120
     9  C   -0.000055  -0.000340   0.000561   0.000085   0.000003  -0.000016
    10  C   -0.000129   0.000441   0.002544  -0.006502  -0.000008   0.000846
    11  C   -0.000007  -0.003041  -0.004401   0.000171  -0.000000  -0.000001
    12  C    0.001407   0.000057  -0.002038  -0.014238  -0.000037  -0.004517
    13  C    0.077587   0.000000   0.000041   0.000366   0.011333   0.011334
    14  C    0.000000  -0.079537   0.001271   0.000087   0.000000   0.000006
    15  C    0.000041   0.001271   0.127663  -0.009796   0.000000  -0.000036
    16  C    0.000366   0.000087  -0.009796   0.397263  -0.000120  -0.011567
    17  C    0.011333   0.000000   0.000000  -0.000120  -0.168132   0.000548
    18  C    0.011334   0.000006  -0.000036  -0.011567   0.000548  -0.168134
    19  C   -0.000811  -0.000000  -0.000000   0.000360  -0.017968   0.000726
    20  C   -0.000811   0.000000   0.000010  -0.018626   0.000727  -0.017960
    21  C    0.003493  -0.000000   0.000000  -0.000106  -0.005212  -0.005212
    22  H    0.000000  -0.000000   0.000000  -0.000000  -0.000000   0.000000
    23  H   -0.000001   0.000000  -0.000001   0.000000   0.000002  -0.000001
    24  H   -0.000002  -0.000000  -0.000000   0.000000   0.000007  -0.000000
    25  H   -0.000000   0.000000  -0.000000   0.000000   0.000000  -0.000000
    26  H    0.000062  -0.000000   0.000000   0.000000  -0.000440   0.000015
    27  H    0.000062  -0.000005  -0.000184   0.003879   0.000015  -0.000440
    28  H   -0.000007  -0.000000   0.000000  -0.000369  -0.000086  -0.000633
    29  H   -0.000014  -0.000000   0.000000  -0.000002   0.000059   0.000059
    30  H   -0.000007   0.000000  -0.000000   0.000000  -0.000633  -0.000086
    31  H    0.000000   0.000068   0.000041   0.000000   0.000000  -0.000000
    32  H   -0.000000   0.000072  -0.000276  -0.000003  -0.000000   0.000000
    33  H   -0.000002   0.000020   0.000715  -0.000386  -0.000000   0.000007
    34  H   -0.000001  -0.000027   0.000029  -0.000008  -0.000001   0.000002
              19         20         21         22         23         24
     1  C   -0.000000   0.000000   0.000000   0.000601  -0.000248   0.000064
     2  C    0.000001   0.000000  -0.000000  -0.000075  -0.000022  -0.000032
     3  C    0.000000  -0.000000  -0.000000   0.000068  -0.000027   0.000020
     4  C    0.000194  -0.000032  -0.000002   0.000037  -0.000407   0.000057
     5  C    0.000057   0.000001   0.000012  -0.000025  -0.000058   0.000176
     6  C   -0.000064  -0.000064   0.000047   0.000002   0.000200   0.000006
     7  C    0.000010  -0.000000   0.000000   0.000041   0.000029   0.000715
     8  C   -0.018626   0.000360  -0.000106   0.000000  -0.000008  -0.000386
     9  C    0.000000   0.000001  -0.000000  -0.000000  -0.000027   0.000000
    10  C   -0.000032   0.000194  -0.000002  -0.000000  -0.000010   0.000000
    11  C    0.000000  -0.000000   0.000000  -0.000000   0.000009  -0.000000
    12  C    0.000001   0.000057   0.000012  -0.000000  -0.000003  -0.000000
    13  C   -0.000811  -0.000811   0.003493   0.000000  -0.000001  -0.000002
    14  C   -0.000000   0.000000  -0.000000  -0.000000   0.000000  -0.000000
    15  C   -0.000000   0.000010   0.000000   0.000000  -0.000001  -0.000000
    16  C    0.000360  -0.018626  -0.000106  -0.000000   0.000000   0.000000
    17  C   -0.017968   0.000727  -0.005212  -0.000000   0.000002   0.000007
    18  C    0.000726  -0.017960  -0.005212   0.000000  -0.000001  -0.000000
    19  C    0.464817  -0.016259  -0.002515  -0.000000   0.000000   0.000000
    20  C   -0.016259   0.464818  -0.002523   0.000000  -0.000000   0.000000
    21  C   -0.002515  -0.002523  -0.204845  -0.000000  -0.000000  -0.000000
    22  H   -0.000000   0.000000  -0.000000  -0.006139   0.000006   0.000002
    23  H    0.000000  -0.000000  -0.000000   0.000006   0.003663  -0.000000
    24  H    0.000000   0.000000  -0.000000   0.000002  -0.000000  -0.005133
    25  H    0.000000   0.000000  -0.000000   0.000011  -0.000001  -0.000006
    26  H   -0.000357  -0.000003  -0.000007  -0.000000   0.000000  -0.000124
    27  H   -0.000003  -0.000357  -0.000007  -0.000000  -0.000000   0.000000
    28  H    0.000162   0.003359  -0.000052   0.000000   0.000000  -0.000000
    29  H   -0.001354  -0.001354   0.000817  -0.000000   0.000000   0.000000
    30  H    0.003359   0.000162  -0.000052   0.000000  -0.000000   0.000000
    31  H    0.000000  -0.000000  -0.000000  -0.000000   0.000001   0.000000
    32  H    0.000000   0.000000  -0.000000  -0.000000   0.000000  -0.000000
    33  H    0.000000   0.000000  -0.000000   0.000000   0.000000   0.000000
    34  H   -0.000000   0.000000  -0.000000   0.000001  -0.000273   0.000000
              25         26         27         28         29         30
     1  C   -0.000290  -0.000002  -0.000000  -0.000000   0.000000   0.000000
     2  C   -0.000010   0.000013  -0.000000  -0.000000   0.000000  -0.000000
     3  C    0.000072  -0.000005  -0.000000   0.000000  -0.000000  -0.000000
     4  C    0.000002   0.000076  -0.000000   0.000000   0.000000  -0.000004
     5  C   -0.000027  -0.000508  -0.000000  -0.000000   0.000000   0.000004
     6  C   -0.000000  -0.000082  -0.000082   0.000017  -0.000001   0.000017
     7  C   -0.000276  -0.000184   0.000000  -0.000000   0.000000   0.000000
     8  C   -0.000003   0.003878   0.000000   0.000000  -0.000002  -0.000369
     9  C   -0.000000  -0.000000   0.000013  -0.000000   0.000000  -0.000000
    10  C    0.000000  -0.000000   0.000076  -0.000004   0.000000   0.000000
    11  C    0.000000  -0.000000  -0.000002   0.000000   0.000000  -0.000000
    12  C   -0.000000  -0.000000  -0.000508   0.000004   0.000000  -0.000000
    13  C   -0.000000   0.000062   0.000062  -0.000007  -0.000014  -0.000007
    14  C    0.000000  -0.000000  -0.000005  -0.000000  -0.000000   0.000000
    15  C   -0.000000   0.000000  -0.000184   0.000000   0.000000  -0.000000
    16  C    0.000000   0.000000   0.003879  -0.000369  -0.000002   0.000000
    17  C    0.000000  -0.000440   0.000015  -0.000086   0.000059  -0.000633
    18  C   -0.000000   0.000015  -0.000440  -0.000633   0.000059  -0.000086
    19  C    0.000000  -0.000357  -0.000003   0.000162  -0.001354   0.003359
    20  C    0.000000  -0.000003  -0.000357   0.003359  -0.001354   0.000162
    21  C   -0.000000  -0.000007  -0.000007  -0.000052   0.000817  -0.000052
    22  H    0.000011  -0.000000  -0.000000   0.000000  -0.000000   0.000000
    23  H   -0.000001   0.000000  -0.000000   0.000000   0.000000  -0.000000
    24  H   -0.000006  -0.000124   0.000000  -0.000000   0.000000   0.000000
    25  H    0.003217   0.000000   0.000000   0.000000  -0.000000   0.000000
    26  H    0.000000  -0.014410  -0.000000  -0.000000   0.000000  -0.000199
    27  H    0.000000  -0.000000  -0.014410  -0.000199   0.000000  -0.000000
    28  H    0.000000  -0.000000  -0.000199  -0.018915   0.000016   0.000008
    29  H   -0.000000   0.000000   0.000000   0.000016   0.007974   0.000016
    30  H    0.000000  -0.000199  -0.000000   0.000008   0.000016  -0.018915
    31  H   -0.000000  -0.000000  -0.000000   0.000000  -0.000000   0.000000
    32  H   -0.000000   0.000000   0.000000   0.000000  -0.000000   0.000000
    33  H   -0.000000   0.000000  -0.000124   0.000000   0.000000  -0.000000
    34  H    0.000000  -0.000000   0.000000  -0.000000   0.000000   0.000000
              31         32         33         34
     1  C   -0.000000   0.000000  -0.000000   0.000009
     2  C   -0.000000  -0.000000   0.000000  -0.000028
     3  C   -0.000000   0.000000  -0.000000   0.000000
     4  C   -0.000000   0.000000   0.000000  -0.000011
     5  C   -0.000000  -0.000000  -0.000000  -0.000003
     6  C    0.000002  -0.000000   0.000006   0.000199
     7  C    0.000000  -0.000000  -0.000000  -0.000001
     8  C   -0.000000   0.000000   0.000000   0.000000
     9  C   -0.000075  -0.000010  -0.000032  -0.000021
    10  C    0.000037   0.000002   0.000057  -0.000406
    11  C    0.000600  -0.000290   0.000064  -0.000246
    12  C   -0.000025  -0.000027   0.000175  -0.000057
    13  C    0.000000  -0.000000  -0.000002  -0.000001
    14  C    0.000068   0.000072   0.000020  -0.000027
    15  C    0.000041  -0.000276   0.000715   0.000029
    16  C    0.000000  -0.000003  -0.000386  -0.000008
    17  C    0.000000  -0.000000  -0.000000  -0.000001
    18  C   -0.000000   0.000000   0.000007   0.000002
    19  C    0.000000   0.000000   0.000000  -0.000000
    20  C   -0.000000   0.000000   0.000000   0.000000
    21  C   -0.000000  -0.000000  -0.000000  -0.000000
    22  H   -0.000000  -0.000000   0.000000   0.000001
    23  H    0.000001   0.000000   0.000000  -0.000273
    24  H    0.000000  -0.000000   0.000000   0.000000
    25  H   -0.000000  -0.000000  -0.000000   0.000000
    26  H   -0.000000   0.000000   0.000000  -0.000000
    27  H   -0.000000   0.000000  -0.000124   0.000000
    28  H    0.000000   0.000000   0.000000  -0.000000
    29  H   -0.000000  -0.000000   0.000000   0.000000
    30  H    0.000000   0.000000  -0.000000   0.000000
    31  H   -0.006140   0.000011   0.000002   0.000006
    32  H    0.000011   0.003217  -0.000006  -0.000001
    33  H    0.000002  -0.000006  -0.005133  -0.000000
    34  H    0.000006  -0.000001  -0.000000   0.003657
 Mulliken charges and spin densities:
               1          2
     1  C   -0.128381   0.128405
     2  C   -0.168795  -0.089788
     3  C   -0.131956  -0.080938
     4  C    0.075806   0.159175
     5  C    0.057591  -0.136093
     6  C    0.045879  -0.142435
     7  C   -0.150094   0.116054
     8  C   -0.253090   0.339755
     9  C   -0.169250  -0.089788
    10  C    0.075597   0.159176
    11  C   -0.128541   0.128393
    12  C    0.057714  -0.136092
    13  C   -0.028365   0.110088
    14  C   -0.131849  -0.080931
    15  C   -0.150127   0.116047
    16  C   -0.253129   0.339761
    17  C    0.061840  -0.193495
    18  C    0.061834  -0.193498
    19  C   -0.137294   0.411697
    20  C   -0.137293   0.411697
    21  C   -0.146138  -0.216260
    22  H    0.124966  -0.005470
    23  H    0.128235   0.002824
    24  H    0.130084  -0.004636
    25  H    0.128978   0.002689
    26  H    0.134563  -0.012277
    27  H    0.134574  -0.012277
    28  H    0.127446  -0.016699
    29  H    0.128628   0.006212
    30  H    0.127447  -0.016699
    31  H    0.124970  -0.005472
    32  H    0.128973   0.002689
    33  H    0.130092  -0.004636
    34  H    0.129087   0.002820
 Sum of Mulliken charges =  -0.00000   1.00000
 Mulliken charges and spin densities with hydrogens summed into heavy atoms:
               1          2
     1  C   -0.003415   0.122935
     2  C   -0.040560  -0.086964
     3  C   -0.002979  -0.078249
     4  C    0.075806   0.159175
     5  C    0.057591  -0.136093
     6  C    0.045879  -0.142435
     7  C   -0.020011   0.111418
     8  C   -0.118528   0.327478
     9  C   -0.040163  -0.086967
    10  C    0.075597   0.159176
    11  C   -0.003570   0.122921
    12  C    0.057714  -0.136092
    13  C   -0.028365   0.110088
    14  C   -0.002876  -0.078242
    15  C   -0.020035   0.111411
    16  C   -0.118555   0.327484
    17  C    0.061840  -0.193495
    18  C    0.061834  -0.193498
    19  C   -0.009847   0.394998
    20  C   -0.009847   0.394998
    21  C   -0.017510  -0.210048
 APT charges:
               1
     1  C   -0.042132
     2  C   -0.085710
     3  C    0.002147
     4  C    0.017604
     5  C   -0.009935
     6  C    0.039845
     7  C   -0.009672
     8  C   -0.011612
     9  C   -0.085411
    10  C    0.017641
    11  C   -0.042278
    12  C   -0.009888
    13  C   -0.030334
    14  C    0.002181
[...]
 1,0.00017720,-0.00000216,0.00006192,0.00002462,-0.00005116,-0.00043025
 ,-0.00012295,0.00011680,-0.00061733,0.,0.00001974,-0.00005405,0.000009
 17,-0.00004961,0.00006409,-0.00012682,-0.00013786,0.00081987,-0.001073
 47,0.00190607,-0.00465748,0.00135390,0.00190610,-0.00465746,-0.0013538
 9,-0.00002656,0.00363270,0.03053683,-0.00002578,0.00363284,-0.03053675
 ,0.00347386,-0.06079101,0.00000078,-0.00000646,0.00000047,0.00000097,-
 0.00000681,-0.00000044,0.00001025,-0.00000079,0.00000039,-0.00001007,-
 0.00000079,-0.00000353,0.00001634,0.00004424,-0.00002415,-0.00002215,0
 .00004424,-0.00002415,0.00002215,-0.00076062,0.00086898,0.00055279,-0.
 00536222,0.06077761,0.00000089,0.00002099,-0.00001843,0.00000215,0.000
 03043,0.00001720,0.00000826,0.00001929,-0.00002310,-0.00001733,0.00000
 843,0.00000286,-0.00004431,0.00028227,-0.00001754,-0.00000001,0.,0.000
 05139,0.00002777,-0.00007753,-0.00009049,0.00010185,-0.00049202,-0.000
 63721,-0.00000215,-0.00003043,0.00001720,0.00001734,-0.00000843,0.0000
 0286,-0.00000089,-0.00002099,-0.00001843,0.00004429,-0.00028227,-0.000
 01753,0.,0.,0.00054325,-0.00000826,-0.00001929,-0.00002310,-0.00002776
 ,0.00007753,-0.00009049,-0.00010183,0.00049203,-0.00063722,-0.00044762
 ,0.00250036,0.00129199,0.00044777,-0.00250034,0.00129198,0.00060347,-0
 .00374660,-0.01208158,-0.00060307,0.00374667,-0.01208162,0.00000384,0.
 00000078,-0.34162487,0.00000308,0.00000277,-0.00001612,-0.00000021,-0.
 00001148,-0.00000375,-0.00000669,0.00001083,0.00001495,0.00000189,0.00
 001618,-0.00001979,-0.00001124,0.00005343,0.00001332,0.00001125,-0.000
 05343,0.00001332,0.00005560,-0.00039880,0.00098550,-0.00000426,-0.0000
 0085,0.36219466,-0.00001303,0.00006927,-0.00001298,-0.00001371,-0.0000
 6428,0.00008352,0.00002518,-0.00002658,-0.00002223,0.00010612,0.000099
 40,-0.00014660,-0.00008049,-0.00004232,0.00007538,0.00039011,-0.000005
 07,0.00006141,0.00002415,0.00000025,0.00004259,-0.00293977,-0.00036417
 ,-0.00036575,-0.00003525,-0.00005091,-0.00006076,-0.00030287,0.0000013
 0,0.00015567,-0.00000052,0.00007435,-0.00000469,0.00014735,0.00006994,
 -0.00002183,0.00430294,0.00050919,-0.00012464,0.00000384,0.00000336,0.
 00004746,0.00004231,-0.00001571,-0.00002539,-0.00073320,0.00003339,0.0
 0013163,0.00370041,0.00031964,-0.00024387,-0.00016079,-0.00042242,-0.0
 0013677,-0.03969314,0.03637010,0.01898750,0.00578929,0.00127720,-0.000
 54870,0.00365148,0.00346934,0.00262046,0.00000161,0.00000076,0.0000029
 3,0.00000367,0.00000091,-0.00000265,0.00001958,-0.00000188,-0.00000036
 ,-0.00000548,-0.00000298,0.00000137,0.00029138,0.00000519,0.00009352,0
 .00002660,0.00001091,-0.00000879,0.00024466,0.00021735,0.00010387,-0.0
 0384545,-0.00076061,-0.00005572,0.02904607,0.00000067,0.00000521,-0.00
 001446,-0.00000435,0.00006653,-0.00001797,0.00001450,-0.00000762,-0.00
 003264,-0.00003906,0.00007253,0.00008264,0.00005068,0.00023595,-0.0002
 3329,0.00004893,-0.00001026,0.00035627,0.00002173,-0.00008984,-0.00003
 346,-0.00072534,0.00079251,0.00142802,0.00000527,-0.00001307,0.0000476
 1,-0.00004052,0.00000429,-0.00008484,0.00000029,-0.00003616,-0.0000203
 2,0.00002760,-0.00001202,-0.00003805,0.00058706,0.00107771,0.00090298,
 -0.00001511,0.00001174,-0.00003077,0.00000077,0.00003549,-0.00000843,-
 0.00012787,0.00006204,-0.00002407,0.00015372,0.00237952,0.00343846,-0.
 00010330,0.00035721,0.00041156,0.03658174,-0.26515080,-0.11964349,0.00
 129489,-0.00218948,0.00408215,0.00358297,-0.01865121,-0.01720269,0.000
 00258,0.00000249,-0.00001103,0.00000263,-0.00000775,0.00000102,-0.0000
 0264,0.00001223,0.00001546,0.00000068,0.00001270,-0.00001484,-0.000012
 04,0.00040058,-0.00047595,0.00000276,0.00002257,0.00002809,0.00021737,
 -0.00103686,-0.00073659,-0.00074901,0.00086898,0.00039878,-0.04078002,
 0.28079155,0.00000493,0.00011298,-0.00004652,-0.00002298,0.00006480,0.
 00013359,0.00003413,-0.00003455,-0.00008657,-0.00004933,-0.00004231,0.
 00009416,0.00000571,0.00048249,0.00015839,0.00007907,-0.00174193,0.000
 04126,0.00000609,-0.00008097,-0.00000984,0.00015889,-0.00196692,0.0013
 3690,-0.00000718,-0.00019490,-0.00004551,-0.00000458,0.00026898,-0.000
 39786,-0.00002550,0.00003634,-0.00001095,-0.00001245,0.00004130,-0.000
 03755,-0.00004199,0.00241735,-0.00477555,0.00000291,-0.00002132,0.0000
 0338,-0.00000315,0.00000732,0.00001488,-0.00000670,0.00005626,0.000248
 85,0.00475706,-0.02932818,-0.01339659,-0.00008058,0.00043848,-0.000550
 04,0.01925643,-0.11964389,-0.12977099,-0.00044758,0.00301013,-0.001262
 30,-0.00273585,0.01728745,0.01120013,-0.00000926,0.00001180,-0.0000049
 8,-0.00000902,-0.00000843,0.00001858,-0.00000560,0.00004186,-0.0000124
 4,-0.00000172,0.00000613,-0.00000023,-0.00020372,0.00126475,-0.0000655
 4,0.00001300,-0.00008799,-0.00001603,-0.00010387,0.00073659,0.00036217
 ,0.00007167,-0.00055281,0.00098550,-0.02062523,0.12744601,0.13590847,-
 0.00005185,0.00030285,-0.00008569,-0.00022608,-0.00040320,0.00021102,0
 .00008903,-0.00012545,-0.00017958,0.00016694,0.00020691,-0.00022094,-0
 .00003540,0.00004557,-0.00014557,0.00045812,-0.00073309,-0.00044289,-0
 .00002935,-0.00008334,0.00017041,-0.00002707,0.00009027,0.00002236,0.0
 0342300,-0.00061067,-0.00171565,0.00747967,0.00159087,-0.00023359,-0.0
 6501629,-0.00024392,-0.08687323,-0.00032483,0.00059880,0.00093706,-0.0
 0051740,-0.00018778,0.00033786,0.00127794,-0.00312496,-0.00706027,0.00
 433809,0.00209634,-0.00206193,-0.00087539,-0.00018582,-0.00030963,-0.0
 0003385,-0.00015180,0.00019706,0.00017927,0.00033104,-0.00024935,0.000
 01042,0.00008591,-0.00019082,0.00003434,0.00010236,0.00020577,0.000022
 69,-0.00021116,0.00000030,-0.00002309,-0.00001426,0.00000637,0.0000767
 6,-0.00008060,-0.00005950,-0.00000285,0.00000020,0.00000175,0.00001126
 ,-0.00000351,-0.00000020,0.00000587,0.00000082,0.00000197,0.00003751,0
 .00000826,0.00001739,0.00000161,0.00000258,0.00000926,-0.00001388,-0.0
 0000646,-0.00000308,0.00000962,0.00000134,0.00000239,0.05604067,0.0000
 2047,-0.00001404,0.00002554,-0.00000982,-0.00008326,-0.00006767,-0.000
 01045,-0.00000790,0.00002237,0.00010558,0.00005366,-0.00001690,-0.0000
 2385,-0.00001455,0.00006887,-0.00036568,0.00067248,-0.00112707,0.00000
 258,0.00001217,-0.00000887,0.00001210,-0.00001349,-0.00001911,-0.00968
 138,0.00020307,-0.03060322,0.00121708,-0.00471468,-0.00130069,-0.00231
 273,-0.06083942,-0.01924522,0.00010093,-0.00082465,-0.00015807,-0.0001
 1239,-0.00038703,-0.00013452,0.00866129,0.00520921,0.02799186,0.001781
 32,-0.00427772,0.00174217,-0.00013297,0.00020390,0.00013499,0.00002619
 ,0.00007632,-0.00014790,0.00002825,-0.00008453,0.00008344,0.00001662,-
 0.00005260,0.00002970,0.00000815,0.00000387,-0.00001527,-0.00000894,0.
 00003031,0.00000506,-0.00001426,-0.00002324,0.00001589,-0.00002868,0.0
 0000721,-0.00005254,0.00000131,-0.00000564,0.00000322,-0.00000303,-0.0
 0000310,0.00000127,-0.00000459,-0.00000709,-0.00000146,-0.00001332,0.0
 0001963,-0.00008731,0.00000076,0.00000249,-0.00001180,-0.00000184,0.00
 000047,-0.00000277,0.00000142,-0.00000335,-0.00001593,0.00188154,0.062
 86262,0.00002457,-0.00007911,0.00004743,0.00003691,0.00002443,-0.00009
 355,-0.00002341,0.00003187,0.00005868,-0.00002441,0.00002449,-0.000012
 19,-0.00001681,-0.00004664,0.00003978,-0.00027828,0.00067230,-0.000376
 18,0.00001315,0.00003228,-0.00003082,0.00002279,-0.00004691,-0.0000295
 9,-0.00483268,0.00310219,-0.00931174,-0.00165059,-0.00263525,0.0014282
 0,-0.08609941,-0.02060531,-0.31339533,0.00022277,-0.00007690,0.0005296
 8,0.00012546,-0.00025207,-0.00015952,-0.00396991,-0.00470823,-0.011335
 29,-0.00185429,0.00277467,0.00123203,0.00030374,0.00003300,0.00018289,
 0.00001994,0.00009595,-0.00009977,-0.00006650,-0.00013626,0.00008988,0
 .00000697,-0.00005761,0.00005654,-0.00000795,-0.00004638,-0.00003811,-
 0.00000406,0.00005874,-0.00000140,-0.00000637,-0.00001590,0.00001860,-
 0.00000852,0.00004313,-0.00003697,0.00000250,-0.00001070,-0.00000388,-
 0.00000677,-0.00001275,0.00000644,-0.00000417,-0.00001555,-0.00000359,
 -0.00000637,0.00001729,0.00000202,-0.00000293,0.00001103,-0.00000498,0
 .00000369,-0.00000097,-0.00001612,-0.00000213,-0.00001245,-0.00001524,
 0.09538244,0.02154291,0.33092225,0.00001156,-0.00002809,0.00000703,0.0
 0006595,0.00007981,-0.00007537,-0.00002662,-0.00000090,0.00002727,0.00
 000129,-0.00006156,-0.00011114,0.00003122,0.00001042,0.00004904,-0.000
 99717,-0.00022333,0.00017253,-0.00000236,0.00002514,-0.00003245,0.0000
 0156,0.00000082,-0.00002406,0.00459174,0.00186775,-0.00250840,-0.00043
 391,0.00020026,-0.00039674,0.00314345,0.00772725,0.00412603,0.00794265
 ,0.00076416,-0.00275728,0.00018701,0.00003825,0.00010658,-0.04053360,0
 .00236225,-0.00598405,0.00395026,-0.00743420,-0.00327742,0.00034210,-0
 .00051409,-0.00020407,0.00005919,-0.00004152,-0.00000317,-0.00071844,-
 0.00001671,-0.00006719,0.00000603,-0.00000216,0.00000911,-0.00000667,-
 0.00003059,-0.00001514,0.00002521,0.00001398,-0.00000958,0.00001126,-0
 .00000303,0.00000677,-0.00001647,0.00003083,0.00001193,0.00000390,-0.0
 0000241,0.00000279,-0.00000013,0.00000314,0.00000156,-0.00000519,-0.00
 000104,-0.00000204,0.00015927,0.00004526,-0.00001577,-0.00000548,0.000
 00068,0.00000172,0.00000841,-0.00000079,-0.00000189,-0.00001005,-0.000
 00210,0.00000116,-0.00255987,-0.00067654,0.00110359,0.02915179,-0.0000
 0475,0.00001937,-0.00003572,-0.00010263,-0.00004088,0.00002622,0.00001
 081,-0.00000806,-0.00001546,0.00000576,0.00003189,-0.00002664,-0.00000
 649,0.00000224,-0.00000643,-0.00018296,-0.00002533,-0.00005422,0.00000
 062,-0.00001442,0.00002248,0.00000352,0.00001291,0.00001108,0.00232311
 ,-0.00190926,0.00361803,0.00014700,0.00054547,0.00067243,-0.00150901,-
 0.01841077,-0.01562161,0.00097876,0.00171223,0.00048497,0.00002326,-0.
 00004234,0.00004674,0.00251980,-0.28281420,-0.11584265,0.00104600,0.00
 171912,0.00307670,0.00004986,-0.00017834,0.00002900,0.00001520,-0.0000
 2637,-0.00000853,-0.00011885,0.00009970,-0.00008652,0.00000205,0.00000
 798,-0.00002950,0.00000285,-0.00002164,0.00001733,0.00000590,-0.000006
 91,0.00000173,-0.00000351,-0.00000310,0.00001275,0.00007842,0.00000347
 ,-0.00004212,0.00000125,-0.00000964,-0.00000729,0.00000314,-0.00001689
 ,0.00000432,-0.00000009,-0.00000922,-0.00000757,0.00001387,0.00002784,
 -0.00003814,-0.00000298,0.00001270,-0.00000613,0.00000113,-0.00000353,
 -0.00001618,-0.00000155,-0.00001073,-0.00000420,-0.00044493,0.00092155
 ,0.00057837,-0.00401671,0.29850782,0.00000619,-0.00005480,0.00002710,0
 .00002271,0.00000202,-0.00004949,-0.00001627,0.00001897,0.00003592,0.0
 0002103,-0.00007639,0.00006813,-0.00000993,-0.00003283,0.00002395,0.00
 032744,0.00022002,0.00022048,0.00000179,0.00002740,-0.00000983,0.00001
 647,-0.00003613,0.00000084,-0.00231302,0.00268020,-0.00089946,-0.00017
 361,0.00020053,-0.00064745,-0.00018617,0.01763188,0.01076509,-0.003206
 49,0.00165216,-0.00446402,-0.00010938,0.00016463,-0.00014732,-0.005578
 36,-0.11498181,-0.11854935,0.00022232,-0.03099449,-0.01042161,0.000079
 55,-0.00142805,0.00033075,-0.00002000,0.00004262,-0.00005324,0.0001586
 6,0.00000673,-0.00051677,-0.00000020,-0.00000368,0.00004742,0.00005293
 ,-0.00017555,-0.00000517,-0.00001338,0.00004388,-0.00004608,0.00000020
 ,-0.00000127,0.00000644,-0.00001405,0.00001036,0.00000999,0.00000167,-
 0.00000363,-0.00000333,-0.00000156,-0.00000432,0.00000469,-0.00000021,
 -0.00000757,0.00000136,-0.00007018,0.00003902,-0.00003326,-0.00000137,
 0.00001484,-0.00000023,-0.00000215,-0.00001634,-0.00001979,0.00000441,
 -0.00000835,-0.00000183,0.00110359,-0.00049876,0.00052798,0.00846043,0
 .12421175,0.12268106,-0.00000941,0.00004497,-0.00001599,-0.00009671,-0
 .00000553,0.00010646,0.00002219,-0.00001854,-0.00003360,0.00016841,0.0
 0004073,-0.00008872,0.00003057,0.00000620,-0.00003780,0.00019601,-0.00
 009412,-0.00008572,-0.00002737,-0.00002640,0.00001805,-0.00003111,-0.0
 0000638,0.00002563,-0.00004654,0.00046710,0.00106630,0.00430521,0.0010
 3038,-0.00196630,0.00741786,-0.00046381,-0.00259213,0.00360790,-0.0027
 8927,-0.00121698,-0.00010573,-0.00002287,0.00002030,0.00246266,0.00681
 900,-0.00498582,-0.04982757,0.05050860,-0.03246647,-0.00306979,-0.0003
 8826,0.00044598,0.00003323,0.00000236,0.00001961,-0.00003194,-0.000134
 75,-0.00009936,-0.00001636,0.00005109,-0.00003764,0.00008362,0.0001080
 8,0.00014476,0.00003012,-0.00010021,0.00000042,-0.00000285,0.00000131,
 -0.00000250,0.00001896,-0.00005760,-0.00001017,-0.00000133,0.00000089,
 0.00000235,0.00000390,0.00000125,-0.00000167,0.00000874,0.00000368,0.0
 0000205,0.00031473,0.00012330,0.00011835,0.00001958,-0.00000264,0.0000
 0560,-0.00001615,-0.00000079,0.00000669,0.00000334,0.00000316,0.000000
 99,0.00022139,0.00014865,-0.00016341,-0.00452512,-0.00076982,0.0012646
 0,0.03999295,0.00000850,-0.00000921,0.00000609,-0.00001851,0.00002066,
 -0.00001871,0.,0.00000517,0.00000239,0.00002877,-0.00024564,-0.0003985
 8,-0.00003529,-0.00010134,0.00011764,0.00017603,-0.00061127,0.00137395
 ,0.00001976,-0.00002605,-0.00003974,-0.00000236,-0.00001008,-0.0000134
 7,-0.00022798,0.00018415,-0.00071542,0.00000889,-0.00209654,-0.0042099
 6,0.00035528,0.00143380,-0.00113770,0.00642793,-0.02112469,0.01729193,
 -0.00004836,0.00012433,0.00009439,-0.00141020,0.00527703,-0.00548140,0
 .05015756,-0.24739472,0.12125569,-0.00035494,0.00091010,0.00227726,-0.
 00000351,0.00011309,-0.00005732,-0.00005774,0.00027868,-0.00040626,0.0
 0000487,-0.00002677,-0.00001393,0.00003453,-0.00006591,0.00008469,0.00
 000393,-0.00005233,-0.00001340,0.00000020,-0.00000564,0.00001070,0.000
 00577,0.00000992,-0.00002251,0.00000089,-0.00002178,0.00000145,-0.0000
 0241,-0.00000964,0.00000363,0.00000071,-0.00000870,-0.00000883,-0.0001
 1168,0.00039916,-0.00133540,-0.00000188,0.00001223,-0.00004186,-0.0000
 0295,0.00000039,-0.00001083,0.00000275,-0.00000067,-0.00001350,-0.0000
 5730,0.00007198,-0.00016527,-0.00044860,0.00089926,0.00061286,-0.05438
 871,0.26210934,0.00000575,0.00001484,0.00000441,0.00004725,-0.00000153
 ,-0.00000435,0.00000068,-0.00000677,-0.00000469,-0.00004204,-0.0000873
 3,-0.00013409,-0.00001119,-0.00004403,0.00002938,-0.00002800,-0.000750
 54,0.00037039,0.00001429,-0.00001362,-0.00001798,-0.00000964,0.0000332
 0,0.00000781,0.00011610,-0.00077449,-0.00056890,-0.00089123,-0.0026895
 4,-0.00081315,-0.00253514,-0.00233496,-0.00443390,0.00284344,-0.014258
 59,0.00920562,0.00003569,-0.00007652,0.00023914,-0.00685311,0.02896708
 ,-0.01218214,-0.03459837,0.12087952,-0.13815666,0.00110042,-0.00161848
 ,0.00102054,0.00000714,0.00001269,0.00002723,-0.00005070,0.00037638,0.
 00018489,0.00000412,-0.00001133,-0.00002232,-0.00003281,0.00001824,-0.
 00007192,-0.00000510,0.00001074,0.00000967,-0.00000175,-0.00000322,-0.
 00000388,-0.00002921,0.00000304,0.00000668,-0.00000235,-0.00000145,0.0
 0000691,-0.00000279,0.00000729,-0.00000333,-0.00000300,0.00000623,0.00
 000090,-0.00011826,0.00038637,-0.00000985,0.00000036,-0.00001546,-0.00
 001244,0.00000243,0.00001007,0.00001495,-0.00000238,0.00000930,0.00000
 081,-0.00059085,0.00132704,-0.00064422,0.00128242,-0.00028944,0.000764
 52,0.04012639,-0.12922971,0.14518883,0.00000433,-0.00013939,0.00027189
 ,0.00000220,-0.00149747,-0.00045953,-0.00020607,0.00004618,0.00022976,
 -0.00015722,-0.00003615,-0.00105211,0.00009617,0.00003255,0.00026893,-
 0.00283564,-0.00131045,0.00030352,-0.00005841,0.00026055,-0.00008035,-
 0.00002712,0.00005431,-0.00019266,-0.07034385,0.07710151,-0.05542486,0
 .00200964,0.00886861,-0.00109921,0.00467027,-0.00114935,-0.00092612,0.
 00469225,-0.00021076,-0.00213062,0.00010725,-0.00002770,0.00083743,0.0
 0740222,-0.00001156,-0.00134401,-0.00043089,-0.00087856,-0.00056209,0.
 00016288,0.00064632,-0.00018695,0.00018755,-0.00025696,0.00005682,-0.0
 0019672,0.00026155,-0.00009749,-0.00000415,-0.00001132,-0.00003496,-0.
 00002198,0.00000150,0.00011740,0.00001133,-0.00005337,-0.00002575,0.00
 007675,-0.00002868,0.00000853,-0.00307624,-0.00301954,-0.00013088,0.00
 001896,0.00000577,0.00002921,-0.00001647,0.00007842,0.00001405,-0.0000
 2166,0.00000412,0.00001761,0.00003173,-0.00000319,-0.00020846,0.000003
 67,0.00000263,0.00000902,0.00000400,-0.00000681,0.00000021,0.00000403,
 0.,0.00000185,-0.00414699,-0.00061375,0.00176045,0.00014722,-0.0000680
 4,-0.00002768,-0.00113341,-0.00006397,0.00022145,0.06304437,0.00004597
 ,-0.00080267,-0.00001492,-0.00360793,-0.00283098,0.00057749,0.00019625
 ,-0.00004614,0.00018032,-0.00038596,0.00028729,-0.00150481,0.00029399,
 0.00020759,0.00001775,-0.00065217,-0.00060839,0.00031813,-0.00005490,-
 0.00007703,0.00002356,-0.00004305,0.00001643,-0.00000278,0.07772431,-0
 .24168788,0.11876583,-0.00193684,0.00609177,-0.00353515,0.00932553,-0.
 02017139,0.01735041,0.00058893,0.00114393,-0.00181726,0.00009996,0.000
 02765,0.00019424,0.00025171,-0.00278917,-0.00383310,-0.00034844,0.0002
 4030,-0.00085607,0.00017484,0.00022732,-0.00027099,-0.00000097,-0.0000
 5735,0.00009264,-0.00000473,0.00003498,-0.00001867,-0.00001343,0.00003
 986,-0.00003742,-0.00001834,0.00002686,0.00007567,0.00000941,-0.000057
 16,-0.00001030,-0.00008059,0.00000721,-0.00004313,-0.00301951,-0.00322
 703,-0.00103180,-0.00005761,0.00000992,-0.00000304,0.00003083,0.000003
 47,-0.00001036,0.00000033,0.00001135,0.00001501,-0.00011280,0.00000070
 ,-0.00005819,0.00000091,-0.00000775,0.00000843,0.00000286,-0.00000044,
 0.00001148,0.00000249,0.00000802,0.00000682,-0.00067739,0.00100539,-0.
 00011841,0.00033436,-0.00097191,0.00074412,-0.00009104,-0.00003830,0.0
 0014500,-0.07797700,0.26398352,0.00001560,-0.00011130,0.00031922,0.000
 74206,-0.00026668,0.00004711,-0.00013386,0.00014631,0.00012842,-0.0000
 2428,-0.00018240,0.00001374,0.00001800,-0.00044515,-0.00027917,0.00111
 222,0.00134257,0.00091560,-0.00002296,0.00015773,-0.00006571,0.0000231
 2,-0.00002493,0.00008911,-0.05377200,0.11806568,-0.13508388,-0.0091640
 5,0.02618891,-0.01318169,0.00415658,-0.01604186,0.01063479,-0.00300860
 ,-0.00276757,-0.00410700,0.00022784,-0.00000976,-0.00029704,-0.0023706
 5,-0.00297069,-0.00024573,0.00003376,-0.00045967,-0.00033713,-0.000076
 89,0.00153731,-0.00006474,-0.00007454,0.00011518,-0.00002934,-0.000054
 02,-0.00002681,0.00012003,-0.00001435,-0.00003016,-0.00000762,0.000005
 94,-0.00008296,-0.00000557,0.00000239,0.00002239,-0.00000448,0.0000595
 0,0.00005253,-0.00003696,0.00013075,0.00103167,0.00121513,0.00001017,0
 .00002251,0.00000668,-0.00001193,0.00004213,0.00000999,0.00001019,0.00
 000478,0.00002856,-0.00002200,0.00002037,-0.00046174,0.00000265,-0.000
 00102,0.00001859,0.00000266,-0.00001025,-0.00000375,-0.00000022,-0.000
 00466,-0.00000050,0.00181575,0.00052073,0.00046607,0.00011580,-0.00067
 555,0.00035250,0.00042976,0.00020113,0.00000113,0.05983562,-0.12536050
 ,0.13984536\\0.00000014,-0.00000014,-0.00000010,0.00000218,0.00000037,
 0.00000009,0.00000086,0.00000002,0.00000017,-0.00000008,0.00000015,0.0
 0000010,-0.00000024,0.00000006,-0.00000016,0.,0.,0.00000036,0.00000048
 ,0.00000011,-0.00000005,0.00000091,0.00000004,0.00000008,-0.00000218,-
 0.00000036,0.00000008,0.00000007,-0.00000015,0.00000010,-0.00000014,0.
 00000014,-0.00000010,0.00000024,-0.00000006,-0.00000016,0.,0.,0.000000
 17,-0.00000086,-0.00000002,0.00000017,-0.00000048,-0.00000011,-0.00000
 005,-0.00000091,-0.00000004,0.00000008,0.00000016,0.,-0.00000003,-0.00
 000016,0.,-0.00000003,0.00000031,0.00000003,0.00000001,-0.00000031,-0.
 00000003,0.00000001,0.,0.,-0.00000008,0.00000074,-0.00000001,0.0000001
 0,-0.00000063,-0.00000028,-0.00000028,0.00000046,0.00000006,-0.0000000
 9,0.00000050,-0.00000003,-0.00000006,-0.00000003,-0.00000002,-0.000000
 03,0.00000003,0.00000001,-0.00000003,-0.00000018,0.,0.00000002,0.,0.,-
 0.00000002,0.00000018,0.,0.00000002,-0.00000074,0.00000001,0.00000010,
 -0.00000050,0.00000003,-0.00000006,-0.00000046,-0.00000006,-0.00000009
 ,0.00000064,0.00000028,-0.00000027\\\@


 ANYONE WHO IS NOT SHOCKED BY QUANTUM THEORY HAS
 NOT UNDERSTOOD IT. -- NIELS BOHR(1885-1962)
 Job cpu time:       0 days  3 hours 25 minutes 41.0 seconds.
 Elapsed time:       0 days  0 hours 12 minutes 52.3 seconds.
 File lengths (MBytes):  RWF=    447 Int=      0 D2E=      0 Chk=      8 Scr=      1
 Normal termination of Gaussian 16 at Wed Nov  3 02:48:40 2021.
