 Entering Gaussian System, Link 0=g16
 Input=5_hexagons18_irreg.com
 Output=5_hexagons18_irreg.log
 Initial command:
 /share/programs/G16_SLATER/g16/l1.exe "/scratch/avaret.21980/Gau-18532.inp" -scrdir="/scratch/avaret.21980/"
 Entering Link 1 = /share/programs/G16_SLATER/g16/l1.exe PID=     18546.
  
 Copyright (c) 1988,1990,1992,1993,1995,1998,2003,2009,2016,
            Gaussian, Inc.  All Rights Reserved.
  
 This is part of the Gaussian(R) 16 program.  It is based on
 the Gaussian(R) 09 system (copyright 2009, Gaussian, Inc.),
 the Gaussian(R) 03 system (copyright 2003, Gaussian, Inc.),
 the Gaussian(R) 98 system (copyright 1998, Gaussian, Inc.),
 the Gaussian(R) 94 system (copyright 1995, Gaussian, Inc.),
 the Gaussian 92(TM) system (copyright 1992, Gaussian, Inc.),
 the Gaussian 90(TM) system (copyright 1990, Gaussian, Inc.),
 the Gaussian 88(TM) system (copyright 1988, Gaussian, Inc.),
 the Gaussian 86(TM) system (copyright 1986, Carnegie Mellon
 University), and the Gaussian 82(TM) system (copyright 1983,
 Carnegie Mellon University). Gaussian is a federally registered
 trademark of Gaussian, Inc.
  
 This software contains proprietary and confidential information,
 including trade secrets, belonging to Gaussian, Inc.
  
 This software is provided under written license and may be
 used, copied, transmitted, or stored only in accord with that
 written license.
  
 The following legend is applicable only to US Government
 contracts under FAR:
  
                    RESTRICTED RIGHTS LEGEND
  
 Use, reproduction and disclosure by the US Government is
 subject to restrictions as set forth in subparagraphs (a)
 and (c) of the Commercial Computer Software - Restricted
 Rights clause in FAR 52.227-19.
  
 Gaussian, Inc.
 340 Quinnipiac St., Bldg. 40, Wallingford CT 06492
  
  
 ---------------------------------------------------------------
 Warning -- This program may not be used in any manner that
 competes with the business of Gaussian, Inc. or will provide
 assistance to any competitor of Gaussian, Inc.  The licensee
 of this program is prohibited from giving any competitor of
 Gaussian, Inc. access to this program.  By using this program,
 the user acknowledges that Gaussian, Inc. is engaged in the
 business of creating and licensing software in the field of
 computational chemistry and represents and warrants to the
 licensee that it is not a competitor of Gaussian, Inc. and that
 it will not use this program in any manner prohibited above.
 ---------------------------------------------------------------
  

 Cite this work as:
 Gaussian 16, Revision A.03,
 M. J. Frisch, G. W. Trucks, H. B. Schlegel, G. E. Scuseria, 
 M. A. Robb, J. R. Cheeseman, G. Scalmani, V. Barone, 
 G. A. Petersson, H. Nakatsuji, X. Li, M. Caricato, A. V. Marenich, 
 J. Bloino, B. G. Janesko, R. Gomperts, B. Mennucci, H. P. Hratchian, 
 J. V. Ortiz, A. F. Izmaylov, J. L. Sonnenberg, D. Williams-Young, 
 F. Ding, F. Lipparini, F. Egidi, J. Goings, B. Peng, A. Petrone, 
 T. Henderson, D. Ranasinghe, V. G. Zakrzewski, J. Gao, N. Rega, 
 G. Zheng, W. Liang, M. Hada, M. Ehara, K. Toyota, R. Fukuda, 
 J. Hasegawa, M. Ishida, T. Nakajima, Y. Honda, O. Kitao, H. Nakai, 
 T. Vreven, K. Throssell, J. A. Montgomery, Jr., J. E. Peralta, 
 F. Ogliaro, M. J. Bearpark, J. J. Heyd, E. N. Brothers, K. N. Kudin, 
 V. N. Staroverov, T. A. Keith, R. Kobayashi, J. Normand, 
 K. Raghavachari, A. P. Rendell, J. C. Burant, S. S. Iyengar, 
 J. Tomasi, M. Cossi, J. M. Millam, M. Klene, C. Adamo, R. Cammi, 
 J. W. Ochterski, R. L. Martin, K. Morokuma, O. Farkas, 
 J. B. Foresman, and D. J. Fox, Gaussian, Inc., Wallingford CT, 2016.
 
 ******************************************
 Gaussian 16:  ES64L-G16RevA.03 25-Dec-2016
                 3-Jul-2020 
 ******************************************
 %chk=5_hexagons18.chk
 %mem=1Gb
 ----------------------
 # b3lyp/6-31g opt freq
 ----------------------
 1/18=20,19=15,26=3,38=1/1,3;
 2/9=110,12=2,17=6,18=5,40=1/2;
 3/5=1,6=6,11=2,25=1,30=1,71=1,74=-5/1,2,3;
 4//1;
 5/5=2,38=5/2;
 6/7=2,8=2,9=2,10=2,28=1/1;
 7//1,2,3,16;
 1/18=20,19=15,26=3/3(2);
 2/9=110/2;
 99//99;
 2/9=110/2;
 3/5=1,6=6,11=2,25=1,30=1,71=1,74=-5/1,2,3;
 4/5=5,16=3,69=1/1;
 5/5=2,38=5/2;
 7//1,2,3,16;
 1/18=20,19=15,26=3/3(-5);
 2/9=110/2;
 6/7=2,8=2,9=2,10=2,19=2,28=1/1;
 99/9=1/99;
 ------------
 5_hexagons18
 ------------
 Symbolic Z-matrix:
 Charge =  0 Multiplicity = 1
 C                     0.        0.        0. 
 C                     1.        1.        0. 
 C                    -1.        1.        0. 
 C                     1.        2.4       0. 
 C                     0.        3.4       0. 
 C                     2.        3.4       0. 
 C                    -1.        2.4       0. 
 C                     0.        4.8       0. 
 C                     3.        2.4       0. 
 C                     4.        3.4       0. 
 C                     2.        4.8       0. 
 C                     5.        1.        0. 
 C                     5.        2.4       0. 
 C                     6.        0.        0. 
 C                     6.        3.4       0. 
 C                     4.        4.8       0. 
 C                     7.        1.        0. 
 C                     7.        2.4       0. 
 C                     6.        4.8       0. 
 C                     1.        5.8       0. 
 C                     3.        5.8       0. 
 C                     5.        5.8       0. 
 H                     0.       -1.1       0. 
 H                     1.68      0.32      0. 
 H                    -1.68      3.08      0. 
 H                    -1.68      0.32      0. 
 H                     1.        6.9       0. 
 H                    -0.68      5.48      0. 
 H                     3.        1.3       0. 
 H                     3.        6.9       0. 
 H                     6.68      5.48      0. 
 H                     5.        6.9       0. 
 H                     6.       -1.1       0. 
 H                     7.68      0.32      0. 
 H                     7.68      3.08      0. 
 H                     4.32      0.32      0. 
 

 GradGradGradGradGradGradGradGradGradGradGradGradGradGradGradGradGradGrad
 Berny optimization.
 Initialization pass.
                           ----------------------------
                           !    Initial Parameters    !
                           ! (Angstroms and Degrees)  !
 --------------------------                            --------------------------
 ! Name  Definition              Value          Derivative Info.                !
 --------------------------------------------------------------------------------
 ! R1    R(1,2)                  1.4142         estimate D2E/DX2                !
 ! R2    R(1,3)                  1.4142         estimate D2E/DX2                !
 ! R3    R(1,23)                 1.1            estimate D2E/DX2                !
 ! R4    R(2,4)                  1.4            estimate D2E/DX2                !
 ! R5    R(2,24)                 0.9617         estimate D2E/DX2                !
 ! R6    R(3,7)                  1.4            estimate D2E/DX2                !
 ! R7    R(3,26)                 0.9617         estimate D2E/DX2                !
 ! R8    R(4,5)                  1.4142         estimate D2E/DX2                !
 ! R9    R(4,6)                  1.4142         estimate D2E/DX2                !
 ! R10   R(5,7)                  1.4142         estimate D2E/DX2                !
 ! R11   R(5,8)                  1.4            estimate D2E/DX2                !
 ! R12   R(6,9)                  1.4142         estimate D2E/DX2                !
 ! R13   R(6,11)                 1.4            estimate D2E/DX2                !
 ! R14   R(7,25)                 0.9617         estimate D2E/DX2                !
 ! R15   R(8,20)                 1.4142         estimate D2E/DX2                !
 ! R16   R(8,28)                 0.9617         estimate D2E/DX2                !
 ! R17   R(9,10)                 1.4142         estimate D2E/DX2                !
 ! R18   R(9,29)                 1.1            estimate D2E/DX2                !
 ! R19   R(10,13)                1.4142         estimate D2E/DX2                !
 ! R20   R(10,16)                1.4            estimate D2E/DX2                !
 ! R21   R(11,20)                1.4142         estimate D2E/DX2                !
 ! R22   R(11,21)                1.4142         estimate D2E/DX2                !
 ! R23   R(12,13)                1.4            estimate D2E/DX2                !
 ! R24   R(12,14)                1.4142         estimate D2E/DX2                !
 ! R25   R(12,36)                0.9617         estimate D2E/DX2                !
 ! R26   R(13,15)                1.4142         estimate D2E/DX2                !
 ! R27   R(14,17)                1.4142         estimate D2E/DX2                !
 ! R28   R(14,33)                1.1            estimate D2E/DX2                !
 ! R29   R(15,18)                1.4142         estimate D2E/DX2                !
 ! R30   R(15,19)                1.4            estimate D2E/DX2                !
 ! R31   R(16,21)                1.4142         estimate D2E/DX2                !
 ! R32   R(16,22)                1.4142         estimate D2E/DX2                !
 ! R33   R(17,18)                1.4            estimate D2E/DX2                !
 ! R34   R(17,34)                0.9617         estimate D2E/DX2                !
 ! R35   R(18,35)                0.9617         estimate D2E/DX2                !
 ! R36   R(19,22)                1.4142         estimate D2E/DX2                !
 ! R37   R(19,31)                0.9617         estimate D2E/DX2                !
 ! R38   R(20,27)                1.1            estimate D2E/DX2                !
 ! R39   R(21,30)                1.1            estimate D2E/DX2                !
 ! R40   R(22,32)                1.1            estimate D2E/DX2                !
 ! A1    A(2,1,3)               90.0            estimate D2E/DX2                !
 ! A2    A(2,1,23)             135.0            estimate D2E/DX2                !
 ! A3    A(3,1,23)             135.0            estimate D2E/DX2                !
 ! A4    A(1,2,4)              135.0            estimate D2E/DX2                !
 ! A5    A(1,2,24)              90.0            estimate D2E/DX2                !
 ! A6    A(4,2,24)             135.0            estimate D2E/DX2                !
 ! A7    A(1,3,7)              135.0            estimate D2E/DX2                !
 ! A8    A(1,3,26)              90.0            estimate D2E/DX2                !
 ! A9    A(7,3,26)             135.0            estimate D2E/DX2                !
 ! A10   A(2,4,5)              135.0            estimate D2E/DX2                !
 ! A11   A(2,4,6)              135.0            estimate D2E/DX2                !
 ! A12   A(5,4,6)               90.0            estimate D2E/DX2                !
 ! A13   A(4,5,7)               90.0            estimate D2E/DX2                !
 ! A14   A(4,5,8)              135.0            estimate D2E/DX2                !
 ! A15   A(7,5,8)              135.0            estimate D2E/DX2                !
 ! A16   A(4,6,9)               90.0            estimate D2E/DX2                !
 ! A17   A(4,6,11)             135.0            estimate D2E/DX2                !
 ! A18   A(9,6,11)             135.0            estimate D2E/DX2                !
 ! A19   A(3,7,5)              135.0            estimate D2E/DX2                !
 ! A20   A(3,7,25)             135.0            estimate D2E/DX2                !
 ! A21   A(5,7,25)              90.0            estimate D2E/DX2                !
 ! A22   A(5,8,20)             135.0            estimate D2E/DX2                !
 ! A23   A(5,8,28)             135.0            estimate D2E/DX2                !
 ! A24   A(20,8,28)             90.0            estimate D2E/DX2                !
 ! A25   A(6,9,10)              90.0            estimate D2E/DX2                !
 ! A26   A(6,9,29)             135.0            estimate D2E/DX2                !
 ! A27   A(10,9,29)            135.0            estimate D2E/DX2                !
 ! A28   A(9,10,13)             90.0            estimate D2E/DX2                !
 ! A29   A(9,10,16)            135.0            estimate D2E/DX2                !
 ! A30   A(13,10,16)           135.0            estimate D2E/DX2                !
 ! A31   A(6,11,20)            135.0            estimate D2E/DX2                !
 ! A32   A(6,11,21)            135.0            estimate D2E/DX2                !
 ! A33   A(20,11,21)            90.0            estimate D2E/DX2                !
 ! A34   A(13,12,14)           135.0            estimate D2E/DX2                !
 ! A35   A(13,12,36)           135.0            estimate D2E/DX2                !
 ! A36   A(14,12,36)            90.0            estimate D2E/DX2                !
 ! A37   A(10,13,12)           135.0            estimate D2E/DX2                !
 ! A38   A(10,13,15)            90.0            estimate D2E/DX2                !
 ! A39   A(12,13,15)           135.0            estimate D2E/DX2                !
 ! A40   A(12,14,17)            90.0            estimate D2E/DX2                !
 ! A41   A(12,14,33)           135.0            estimate D2E/DX2                !
 ! A42   A(17,14,33)           135.0            estimate D2E/DX2                !
 ! A43   A(13,15,18)            90.0            estimate D2E/DX2                !
 ! A44   A(13,15,19)           135.0            estimate D2E/DX2                !
 ! A45   A(18,15,19)           135.0            estimate D2E/DX2                !
 ! A46   A(10,16,21)           135.0            estimate D2E/DX2                !
 ! A47   A(10,16,22)           135.0            estimate D2E/DX2                !
 ! A48   A(21,16,22)            90.0            estimate D2E/DX2                !
 ! A49   A(14,17,18)           135.0            estimate D2E/DX2                !
 ! A50   A(14,17,34)            90.0            estimate D2E/DX2                !
 ! A51   A(18,17,34)           135.0            estimate D2E/DX2                !
 ! A52   A(15,18,17)           135.0            estimate D2E/DX2                !
 ! A53   A(15,18,35)            90.0            estimate D2E/DX2                !
 ! A54   A(17,18,35)           135.0            estimate D2E/DX2                !
 ! A55   A(15,19,22)           135.0            estimate D2E/DX2                !
 ! A56   A(15,19,31)           135.0            estimate D2E/DX2                !
 ! A57   A(22,19,31)            90.0            estimate D2E/DX2                !
 ! A58   A(8,20,11)             90.0            estimate D2E/DX2                !
 ! A59   A(8,20,27)            135.0            estimate D2E/DX2                !
 ! A60   A(11,20,27)           135.0            estimate D2E/DX2                !
 ! A61   A(11,21,16)            90.0            estimate D2E/DX2                !
 ! A62   A(11,21,30)           135.0            estimate D2E/DX2                !
 ! A63   A(16,21,30)           135.0            estimate D2E/DX2                !
 ! A64   A(16,22,19)            90.0            estimate D2E/DX2                !
 ! A65   A(16,22,32)           135.0            estimate D2E/DX2                !
 ! A66   A(19,22,32)           135.0            estimate D2E/DX2                !
 ! D1    D(3,1,2,4)              0.0            estimate D2E/DX2                !
 ! D2    D(3,1,2,24)           180.0            estimate D2E/DX2                !
 ! D3    D(23,1,2,4)           180.0            estimate D2E/DX2                !
 ! D4    D(23,1,2,24)            0.0            estimate D2E/DX2                !
 ! D5    D(2,1,3,7)              0.0            estimate D2E/DX2                !
 ! D6    D(2,1,3,26)           180.0            estimate D2E/DX2                !
 ! D7    D(23,1,3,7)           180.0            estimate D2E/DX2                !
 ! D8    D(23,1,3,26)            0.0            estimate D2E/DX2                !
 ! D9    D(1,2,4,5)              0.0            estimate D2E/DX2                !
 ! D10   D(1,2,4,6)            180.0            estimate D2E/DX2                !
 ! D11   D(24,2,4,5)           180.0            estimate D2E/DX2                !
 ! D12   D(24,2,4,6)             0.0            estimate D2E/DX2                !
 ! D13   D(1,3,7,5)              0.0            estimate D2E/DX2                !
 ! D14   D(1,3,7,25)           180.0            estimate D2E/DX2                !
 ! D15   D(26,3,7,5)           180.0            estimate D2E/DX2                !
 ! D16   D(26,3,7,25)            0.0            estimate D2E/DX2                !
 ! D17   D(2,4,5,7)              0.0            estimate D2E/DX2                !
 ! D18   D(2,4,5,8)            180.0            estimate D2E/DX2                !
 ! D19   D(6,4,5,7)            180.0            estimate D2E/DX2                !
 ! D20   D(6,4,5,8)              0.0            estimate D2E/DX2                !
 ! D21   D(2,4,6,9)              0.0            estimate D2E/DX2                !
 ! D22   D(2,4,6,11)           180.0            estimate D2E/DX2                !
 ! D23   D(5,4,6,9)            180.0            estimate D2E/DX2                !
 ! D24   D(5,4,6,11)             0.0            estimate D2E/DX2                !
 ! D25   D(4,5,7,3)              0.0            estimate D2E/DX2                !
 ! D26   D(4,5,7,25)           180.0            estimate D2E/DX2                !
 ! D27   D(8,5,7,3)            180.0            estimate D2E/DX2                !
 ! D28   D(8,5,7,25)             0.0            estimate D2E/DX2                !
 ! D29   D(4,5,8,20)             0.0            estimate D2E/DX2                !
 ! D30   D(4,5,8,28)           180.0            estimate D2E/DX2                !
 ! D31   D(7,5,8,20)           180.0            estimate D2E/DX2                !
 ! D32   D(7,5,8,28)             0.0            estimate D2E/DX2                !
 ! D33   D(4,6,9,10)           180.0            estimate D2E/DX2                !
 ! D34   D(4,6,9,29)             0.0            estimate D2E/DX2                !
 ! D35   D(11,6,9,10)            0.0            estimate D2E/DX2                !
 ! D36   D(11,6,9,29)          180.0            estimate D2E/DX2                !
 ! D37   D(4,6,11,20)            0.0            estimate D2E/DX2                !
 ! D38   D(4,6,11,21)          180.0            estimate D2E/DX2                !
 ! D39   D(9,6,11,20)          180.0            estimate D2E/DX2                !
 ! D40   D(9,6,11,21)            0.0            estimate D2E/DX2                !
 ! D41   D(5,8,20,11)            0.0            estimate D2E/DX2                !
 ! D42   D(5,8,20,27)          180.0            estimate D2E/DX2                !
 ! D43   D(28,8,20,11)         180.0            estimate D2E/DX2                !
 ! D44   D(28,8,20,27)           0.0            estimate D2E/DX2                !
 ! D45   D(6,9,10,13)          180.0            estimate D2E/DX2                !
 ! D46   D(6,9,10,16)            0.0            estimate D2E/DX2                !
 ! D47   D(29,9,10,13)           0.0            estimate D2E/DX2                !
 ! D48   D(29,9,10,16)         180.0            estimate D2E/DX2                !
 ! D49   D(9,10,13,12)           0.0            estimate D2E/DX2                !
 ! D50   D(9,10,13,15)         180.0            estimate D2E/DX2                !
 ! D51   D(16,10,13,12)        180.0            estimate D2E/DX2                !
 ! D52   D(16,10,13,15)          0.0            estimate D2E/DX2                !
 ! D53   D(9,10,16,21)           0.0            estimate D2E/DX2                !
 ! D54   D(9,10,16,22)         180.0            estimate D2E/DX2                !
 ! D55   D(13,10,16,21)        180.0            estimate D2E/DX2                !
 ! D56   D(13,10,16,22)          0.0            estimate D2E/DX2                !
 ! D57   D(6,11,20,8)            0.0            estimate D2E/DX2                !
 ! D58   D(6,11,20,27)         180.0            estimate D2E/DX2                !
 ! D59   D(21,11,20,8)         180.0            estimate D2E/DX2                !
 ! D60   D(21,11,20,27)          0.0            estimate D2E/DX2                !
 ! D61   D(6,11,21,16)           0.0            estimate D2E/DX2                !
 ! D62   D(6,11,21,30)         180.0            estimate D2E/DX2                !
 ! D63   D(20,11,21,16)        180.0            estimate D2E/DX2                !
 ! D64   D(20,11,21,30)          0.0            estimate D2E/DX2                !
 ! D65   D(14,12,13,10)        180.0            estimate D2E/DX2                !
 ! D66   D(14,12,13,15)          0.0            estimate D2E/DX2                !
 ! D67   D(36,12,13,10)          0.0            estimate D2E/DX2                !
 ! D68   D(36,12,13,15)        180.0            estimate D2E/DX2                !
 ! D69   D(13,12,14,17)          0.0            estimate D2E/DX2                !
 ! D70   D(13,12,14,33)        180.0            estimate D2E/DX2                !
 ! D71   D(36,12,14,17)        180.0            estimate D2E/DX2                !
 ! D72   D(36,12,14,33)          0.0            estimate D2E/DX2                !
 ! D73   D(10,13,15,18)        180.0            estimate D2E/DX2                !
 ! D74   D(10,13,15,19)          0.0            estimate D2E/DX2                !
 ! D75   D(12,13,15,18)          0.0            estimate D2E/DX2                !
 ! D76   D(12,13,15,19)        180.0            estimate D2E/DX2                !
 ! D77   D(12,14,17,18)          0.0            estimate D2E/DX2                !
 ! D78   D(12,14,17,34)        180.0            estimate D2E/DX2                !
 ! D79   D(33,14,17,18)        180.0            estimate D2E/DX2                !
 ! D80   D(33,14,17,34)          0.0            estimate D2E/DX2                !
 ! D81   D(13,15,18,17)          0.0            estimate D2E/DX2                !
 ! D82   D(13,15,18,35)        180.0            estimate D2E/DX2                !
 ! D83   D(19,15,18,17)        180.0            estimate D2E/DX2                !
 ! D84   D(19,15,18,35)          0.0            estimate D2E/DX2                !
 ! D85   D(13,15,19,22)          0.0            estimate D2E/DX2                !
 ! D86   D(13,15,19,31)        180.0            estimate D2E/DX2                !
 ! D87   D(18,15,19,22)        180.0            estimate D2E/DX2                !
 ! D88   D(18,15,19,31)          0.0            estimate D2E/DX2                !
 ! D89   D(10,16,21,11)          0.0            estimate D2E/DX2                !
 ! D90   D(10,16,21,30)        180.0            estimate D2E/DX2                !
 ! D91   D(22,16,21,11)        180.0            estimate D2E/DX2                !
 ! D92   D(22,16,21,30)          0.0            estimate D2E/DX2                !
 ! D93   D(10,16,22,19)          0.0            estimate D2E/DX2                !
 ! D94   D(10,16,22,32)        180.0            estimate D2E/DX2                !
 ! D95   D(21,16,22,19)        180.0            estimate D2E/DX2                !
 ! D96   D(21,16,22,32)          0.0            estimate D2E/DX2                !
 ! D97   D(14,17,18,15)          0.0            estimate D2E/DX2                !
 ! D98   D(14,17,18,35)        180.0            estimate D2E/DX2                !
 ! D99   D(34,17,18,15)        180.0            estimate D2E/DX2                !
 ! D100  D(34,17,18,35)          0.0            estimate D2E/DX2                !
 ! D101  D(15,19,22,16)          0.0            estimate D2E/DX2                !
 ! D102  D(15,19,22,32)        180.0            estimate D2E/DX2                !
 ! D103  D(31,19,22,16)        180.0            estimate D2E/DX2                !
 ! D104  D(31,19,22,32)          0.0            estimate D2E/DX2                !
 --------------------------------------------------------------------------------
 Trust Radius=3.00D-01 FncErr=1.00D-07 GrdErr=1.00D-06 EigMax=2.50D+02 EigMin=1.00D-04
 Number of steps in this run=    216 maximum allowed number of steps=    216.
 GradGradGradGradGradGradGradGradGradGradGradGradGradGradGradGradGradGrad

                          Input orientation:                          
 ---------------------------------------------------------------------
 Center     Atomic      Atomic             Coordinates (Angstroms)
 Number     Number       Type             X           Y           Z
 ---------------------------------------------------------------------
      1          6           0        0.000000    0.000000    0.000000
      2          6           0        1.000000    1.000000    0.000000
      3          6           0       -1.000000    1.000000    0.000000
      4          6           0        1.000000    2.400000    0.000000
      5          6           0        0.000000    3.400000    0.000000
      6          6           0        2.000000    3.400000    0.000000
      7          6           0       -1.000000    2.400000    0.000000
      8          6           0        0.000000    4.800000    0.000000
      9          6           0        3.000000    2.400000    0.000000
     10          6           0        4.000000    3.400000    0.000000
     11          6           0        2.000000    4.800000    0.000000
     12          6           0        5.000000    1.000000    0.000000
     13          6           0        5.000000    2.400000    0.000000
     14          6           0        6.000000    0.000000    0.000000
     15          6           0        6.000000    3.400000    0.000000
     16          6           0        4.000000    4.800000    0.000000
     17          6           0        7.000000    1.000000    0.000000
     18          6           0        7.000000    2.400000    0.000000
     19          6           0        6.000000    4.800000    0.000000
     20          6           0        1.000000    5.800000    0.000000
     21          6           0        3.000000    5.800000    0.000000
     22          6           0        5.000000    5.800000    0.000000
     23          1           0        0.000000   -1.100000    0.000000
     24          1           0        1.680000    0.320000    0.000000
     25          1           0       -1.680000    3.080000    0.000000
     26          1           0       -1.680000    0.320000    0.000000
     27          1           0        1.000000    6.900000    0.000000
     28          1           0       -0.680000    5.480000    0.000000
     29          1           0        3.000000    1.300000    0.000000
     30          1           0        3.000000    6.900000    0.000000
     31          1           0        6.680000    5.480000    0.000000
     32          1           0        5.000000    6.900000    0.000000
     33          1           0        6.000000   -1.100000    0.000000
     34          1           0        7.680000    0.320000    0.000000
     35          1           0        7.680000    3.080000    0.000000
     36          1           0        4.320000    0.320000    0.000000
 ---------------------------------------------------------------------
                    Distance matrix (angstroms):
                    1          2          3          4          5
     1  C    0.000000
     2  C    1.414214   0.000000
     3  C    1.414214   2.000000   0.000000
     4  C    2.600000   1.400000   2.441311   0.000000
     5  C    3.400000   2.600000   2.600000   1.414214   0.000000
     6  C    3.944617   2.600000   3.841875   1.414214   2.000000
     7  C    2.600000   2.441311   1.400000   2.000000   1.414214
     8  C    4.800000   3.929377   3.929377   2.600000   1.400000
     9  C    3.841875   2.441311   4.237924   2.000000   3.162278
    10  C    5.249762   3.841875   5.546170   3.162278   4.000000
    11  C    5.200000   3.929377   4.841487   2.600000   2.441311
    12  C    5.099020   4.000000   6.000000   4.237924   5.546170
    13  C    5.546170   4.237924   6.161169   4.000000   5.099020
    14  C    6.000000   5.099020   7.071068   5.546170   6.896376
    15  C    6.896376   5.546170   7.400000   5.099020   6.000000
    16  C    6.248200   4.841487   6.280127   3.841875   4.237924
    17  C    7.071068   6.000000   8.000000   6.161169   7.400000
    18  C    7.400000   6.161169   8.121576   6.000000   7.071068
    19  C    7.683749   6.280127   7.964923   5.546170   6.161169
    20  C    5.885576   4.800000   5.200000   3.400000   2.600000
    21  C    6.529931   5.200000   6.248200   3.944617   3.841875
    22  C    7.657676   6.248200   7.683749   5.249762   5.546170
    23  H    1.100000   2.325941   2.325941   3.640055   4.500000
    24  H    1.710205   0.961665   2.764923   2.188333   3.508390
    25  H    3.508390   3.392462   2.188333   2.764923   1.710205
    26  H    1.710205   2.764923   0.961665   3.392462   3.508390
    27  H    6.972087   5.900000   6.229767   4.500000   3.640055
    28  H    5.522029   4.784642   4.491414   3.508390   2.188333
    29  H    3.269557   2.022375   4.011234   2.282542   3.661967
    30  H    7.523962   6.229767   7.128113   4.924429   4.609772
    31  H    8.640185   7.234141   8.891164   6.461331   6.996342
    32  H    8.521150   7.128113   8.414868   6.020797   6.103278
    33  H    6.100000   5.423099   7.308215   6.103278   7.500000
    34  H    7.686664   6.714522   8.706595   6.996342   8.274588
    35  H    8.274588   6.996342   8.925738   6.714522   7.686664
    36  H    4.331836   3.388923   5.363283   3.917754   5.305544
                    6          7          8          9         10
     6  C    0.000000
     7  C    3.162278   0.000000
     8  C    2.441311   2.600000   0.000000
     9  C    1.414214   4.000000   3.841875   0.000000
    10  C    2.000000   5.099020   4.237924   1.414214   0.000000
    11  C    1.400000   3.841875   2.000000   2.600000   2.441311
    12  C    3.841875   6.161169   6.280127   2.441311   2.600000
    13  C    3.162278   6.000000   5.546170   2.000000   1.414214
    14  C    5.249762   7.400000   7.683749   3.841875   3.944617
    15  C    4.000000   7.071068   6.161169   3.162278   2.000000
    16  C    2.441311   5.546170   4.000000   2.600000   1.400000
    17  C    5.546170   8.121576   7.964923   4.237924   3.841875
    18  C    5.099020   8.000000   7.400000   4.000000   3.162278
    19  C    4.237924   7.400000   6.000000   3.841875   2.441311
    20  C    2.600000   3.944617   1.414214   3.944617   3.841875
    21  C    2.600000   5.249762   3.162278   3.400000   2.600000
    22  C    3.841875   6.896376   5.099020   3.944617   2.600000
    23  H    4.924429   3.640055   5.900000   4.609772   6.020797
    24  H    3.096579   3.392462   4.784642   2.463493   3.856008
    25  H    3.693887   0.961665   2.404329   4.729144   5.689007
    26  H    4.798833   2.188333   4.784642   5.121406   6.461331
    27  H    3.640055   4.924429   2.325941   4.924429   4.609772
    28  H    3.392462   3.096579   0.961665   4.798833   5.121406
    29  H    2.325941   4.148494   4.609772   1.100000   2.325941
    30  H    3.640055   6.020797   3.661967   4.500000   3.640055
    31  H    5.121406   8.274588   6.714522   4.798833   3.392462
    32  H    4.609772   7.500000   5.423099   4.924429   3.640055
    33  H    6.020797   7.826238   8.414868   4.609772   4.924429
    34  H    6.461331   8.925738   8.891164   5.121406   4.798833
    35  H    5.689007   8.706595   7.870248   4.729144   3.693887
    36  H    3.856008   5.712162   6.223568   2.463493   3.096579
                   11         12         13         14         15
    11  C    0.000000
    12  C    4.841487   0.000000
    13  C    3.841875   1.400000   0.000000
    14  C    6.248200   1.414214   2.600000   0.000000
    15  C    4.237924   2.600000   1.414214   3.400000   0.000000
    16  C    2.000000   3.929377   2.600000   5.200000   2.441311
    17  C    6.280127   2.000000   2.441311   1.414214   2.600000
    18  C    5.546170   2.441311   2.000000   2.600000   1.414214
    19  C    4.000000   3.929377   2.600000   4.800000   1.400000
    20  C    1.414214   6.248200   5.249762   7.657676   5.546170
    21  C    1.414214   5.200000   3.944617   6.529931   3.841875
    22  C    3.162278   4.800000   3.400000   5.885576   2.600000
    23  H    6.229767   5.423099   6.103278   6.100000   7.500000
    24  H    4.491414   3.388923   3.917754   4.331836   5.305544
    25  H    4.062118   6.996342   6.714522   8.274588   7.686664
    26  H    5.797655   6.714522   6.996342   7.686664   8.274588
    27  H    2.325941   7.128113   6.020797   8.521150   6.103278
    28  H    2.764923   7.234141   6.461331   8.640185   6.996342
    29  H    3.640055   2.022375   2.282542   3.269557   3.661967
    30  H    2.325941   6.229767   4.924429   7.523962   4.609772
    31  H    4.729144   4.784642   3.508390   5.522029   2.188333
    32  H    3.661967   5.900000   4.500000   6.972087   3.640055
    33  H    7.128113   2.325941   3.640055   1.100000   4.500000
    34  H    7.234141   2.764923   3.392462   1.710205   3.508390
    35  H    5.934711   3.392462   2.764923   3.508390   1.710205
    36  H    5.045077   0.961665   2.188333   1.710205   3.508390
                   16         17         18         19         20
    16  C    0.000000
    17  C    4.841487   0.000000
    18  C    3.841875   1.400000   0.000000
    19  C    2.000000   3.929377   2.600000   0.000000
    20  C    3.162278   7.683749   6.896376   5.099020   0.000000
    21  C    1.414214   6.248200   5.249762   3.162278   2.000000
    22  C    1.414214   5.200000   3.944617   1.414214   4.000000
    23  H    7.128113   7.308215   7.826238   8.414868   6.972087
    24  H    5.045077   5.363283   5.712162   6.223568   5.522029
    25  H    5.934711   8.925738   8.706595   7.870248   3.818481
    26  H    7.234141   8.706595   8.925738   8.891164   6.100230
    27  H    3.661967   8.414868   7.500000   5.423099   1.100000
    28  H    4.729144   8.891164   8.274588   6.714522   1.710205
    29  H    3.640055   4.011234   4.148494   4.609772   4.924429
    30  H    2.325941   7.128113   6.020797   3.661967   2.282542
    31  H    2.764923   4.491414   3.096579   0.961665   5.689007
    32  H    2.325941   6.229767   4.924429   2.325941   4.148494
    33  H    6.229767   2.325941   3.640055   5.900000   8.521150
    34  H    5.797655   0.961665   2.188333   4.784642   8.640185
    35  H    4.062118   2.188333   0.961665   2.404329   7.212545
    36  H    4.491414   2.764923   3.392462   4.784642   6.407246
                   21         22         23         24         25
    21  C    0.000000
    22  C    2.000000   0.000000
    23  H    7.523962   8.521150   0.000000
    24  H    5.636737   6.407246   2.199727   0.000000
    25  H    5.413021   7.212545   4.504975   4.348241   0.000000
    26  H    7.206442   8.640185   2.199727   3.360000   2.760000
    27  H    2.282542   4.148494   8.062258   6.615043   4.666348
    28  H    3.693887   5.689007   6.615043   5.674081   2.600000
    29  H    4.500000   4.924429   3.841875   1.644019   5.007075
    30  H    1.100000   2.282542   8.544004   6.711095   6.041093
    31  H    3.693887   1.710205   9.376503   7.185096   8.697678
    32  H    2.282542   1.100000   9.433981   7.370129   7.695115
    33  H    7.523962   6.972087   6.000000   4.547395   8.743844
    34  H    7.206442   6.100230   7.810173   6.000000   9.758442
    35  H    5.413021   3.818481   8.743844   6.604362   9.360000
    36  H    5.636737   5.522029   4.547395   2.640000   6.604362
                   26         27         28         29         30
    26  H    0.000000
    27  H    7.104843   0.000000
    28  H    5.256006   2.199727   0.000000
    29  H    4.781506   5.946427   5.569093   0.000000
    30  H    8.074577   2.000000   3.944464   5.600000   0.000000
    31  H    9.824215   5.854810   7.360000   5.569093   3.944464
    32  H    9.376503   4.000000   5.854810   5.946427   2.000000
    33  H    7.810173   9.433981   9.376503   3.841875   8.544004
    34  H    9.360000   9.376503   9.824215   4.781506   8.074577
    35  H    9.758442   7.695115   8.697678   5.007075   6.041093
    36  H    6.000000   7.370129   7.185096   1.644019   6.711095
                   31         32         33         34         35
    31  H    0.000000
    32  H    2.199727   0.000000
    33  H    6.615043   8.062258   0.000000
    34  H    5.256006   7.104843   2.199727   0.000000
    35  H    2.600000   4.666348   4.504975   2.760000   0.000000
    36  H    5.674081   6.615043   2.199727   3.360000   4.348241
                   36
    36  H    0.000000
 Stoichiometry    C22H14
 Framework group  C2V[C2(HCCH),SGV(C20H12)]
 Deg. of freedom    35
 Full point group                 C2V     NOp   4
 Largest Abelian subgroup         C2V     NOp   4
 Largest concise Abelian subgroup C2      NOp   2
                         Standard orientation:                         
 ---------------------------------------------------------------------
 Center     Atomic      Atomic             Coordinates (Angstroms)
 Number     Number       Type             X           Y           Z
 ---------------------------------------------------------------------
      1          6           0        0.000000    3.000000   -2.982192
      2          6           0        0.000000    2.000000   -1.982192
      3          6           0        0.000000    4.000000   -1.982192
      4          6           0        0.000000    2.000000   -0.582192
      5          6           0        0.000000    3.000000    0.417808
      6          6           0        0.000000    1.000000    0.417808
      7          6           0        0.000000    4.000000   -0.582192
      8          6           0        0.000000    3.000000    1.817808
      9          6           0        0.000000    0.000000   -0.582192
     10          6           0       -0.000000   -1.000000    0.417808
     11          6           0        0.000000    1.000000    1.817808
     12          6           0       -0.000000   -2.000000   -1.982192
     13          6           0       -0.000000   -2.000000   -0.582192
     14          6           0       -0.000000   -3.000000   -2.982192
     15          6           0       -0.000000   -3.000000    0.417808
     16          6           0       -0.000000   -1.000000    1.817808
     17          6           0       -0.000000   -4.000000   -1.982192
     18          6           0       -0.000000   -4.000000   -0.582192
     19          6           0       -0.000000   -3.000000    1.817808
     20          6           0        0.000000    2.000000    2.817808
     21          6           0        0.000000   -0.000000    2.817808
     22          6           0       -0.000000   -2.000000    2.817808
     23          1           0        0.000000    3.000000   -4.082192
     24          1           0        0.000000    1.320000   -2.662192
     25          1           0        0.000000    4.680000    0.097808
     26          1           0        0.000000    4.680000   -2.662192
     27          1           0        0.000000    2.000000    3.917808
     28          1           0        0.000000    3.680000    2.497808
     29          1           0        0.000000    0.000000   -1.682192
     30          1           0        0.000000   -0.000000    3.917808
     31          1           0       -0.000000   -3.680000    2.497808
     32          1           0       -0.000000   -2.000000    3.917808
     33          1           0       -0.000000   -3.000000   -4.082192
     34          1           0       -0.000000   -4.680000   -2.662192
     35          1           0       -0.000000   -4.680000    0.097808
     36          1           0       -0.000000   -1.320000   -2.662192
 ---------------------------------------------------------------------
 Rotational constants (GHZ):           0.5057939           0.2663664           0.1744800
 Standard basis: 6-31G (6D, 7F)
 There are    96 symmetry adapted cartesian basis functions of A1  symmetry.
 There are    20 symmetry adapted cartesian basis functions of A2  symmetry.
 There are    24 symmetry adapted cartesian basis functions of B1  symmetry.
 There are    86 symmetry adapted cartesian basis functions of B2  symmetry.
 There are    96 symmetry adapted basis functions of A1  symmetry.
 There are    20 symmetry adapted basis functions of A2  symmetry.
 There are    24 symmetry adapted basis functions of B1  symmetry.
 There are    86 symmetry adapted basis functions of B2  symmetry.
   226 basis functions,   540 primitive gaussians,   226 cartesian basis functions
    73 alpha electrons       73 beta electrons
       nuclear repulsion energy      1637.2806337577 Hartrees.
 NAtoms=   36 NActive=   36 NUniq=   20 SFac= 3.24D+00 NAtFMM=   60 NAOKFM=F Big=F
 Integral buffers will be    131072 words long.
 Raffenetti 2 integral format.
 Two-electron integral symmetry is turned on.
 One-electron integrals computed using PRISM.
 NBasis=   226 RedAO= T EigKep=  2.57D-04  NBF=    96    20    24    86
 NBsUse=   226 1.00D-06 EigRej= -1.00D+00 NBFU=    96    20    24    86
 ExpMin= 1.61D-01 ExpMax= 3.05D+03 ExpMxC= 4.57D+02 IAcc=3 IRadAn=         5 AccDes= 0.00D+00
 Harris functional with IExCor=  402 and IRadAn=       5 diagonalized for initial guess.
 HarFok:  IExCor=  402 AccDes= 0.00D+00 IRadAn=         5 IDoV= 1 UseB2=F ITyADJ=14
 ICtDFT=  3500011 ScaDFX=  1.000000  1.000000  1.000000  1.000000
 FoFCou: FMM=F IPFlag=           0 FMFlag=      100000 FMFlg1=           0
         NFxFlg=           0 DoJE=T BraDBF=F KetDBF=T FulRan=T
         wScrn=  0.000000 ICntrl=       500 IOpCl=  0 I1Cent=   200000004 NGrid=           0
         NMat0=    1 NMatS0=      1 NMatT0=    0 NMatD0=    1 NMtDS0=    0 NMtDT0=    0
 Petite list used in FoFCou.
 Initial guess orbital symmetries:
       Occupied  (B2) (A1) (B2) (A1) (B2) (A1) (B2) (A1) (A1) (B2)
                 (A1) (B2) (A1) (B2) (A1) (B2) (A1) (B2) (A1) (A1)
                 (B2) (A1) (A1) (B2) (A1) (B2) (A1) (A1) (B2) (B2)
                 (A1) (A1) (B2) (B2) (A1) (A1) (B2) (A1) (B2) (A1)
                 (B2) (A1) (B2) (A1) (A1) (B2) (B2) (A1) (A1) (B2)
                 (A1) (B2) (A1) (B2) (A1) (B1) (A2) (B2) (B1) (A2)
                 (A1) (B1) (B1) (A1) (B2) (A2) (A2) (A1) (B1) (B2)
                 (A2) (B1) (B2)
       Virtual   (A2) (B1) (B1) (A2) (B1) (B1) (A2) (A2) (A1) (A1)
                 (B1) (B2) (A1) (B2) (B2) (B1) (A2) (B2) (A1) (A1)
                 (A1) (B2) (A1) (B2) (A1) (B2) (A1) (B2) (A1) (B2)
                 (A1) (B2) (B2) (A1) (A1) (A1) (B2) (B2) (A1) (B2)
                 (B2) (A1) (A1) (B2) (A1) (B2) (A1) (B1) (B2) (A2)
                 (A1) (B2) (B1) (B1) (B2) (A1) (A2) (A1) (B1) (B2)
                 (A1) (A2) (B1) (A2) (A1) (B1) (B2) (A2) (A1) (B2)
                 (A2) (A1) (B1) (B2) (B1) (A1) (B2) (A2) (A1) (B1)
                 (B2) (B1) (A2) (A1) (B2) (A1) (A1) (B2) (A2) (A1)
                 (A1) (B1) (B2) (A1) (B2) (B1) (A1) (B2) (B2) (A1)
                 (A2) (A1) (B2) (B2) (A1) (B2) (B2) (A1) (A1) (A1)
                 (B2) (A1) (B2) (A1) (B2) (A1) (B2) (A1) (B2) (A1)
                 (B2) (A1) (B2) (A1) (B2) (A1) (A1) (A1) (B2) (B2)
                 (B2) (A1) (A1) (A1) (B2) (A1) (B2) (A1) (B2) (A1)
                 (B2) (B2) (A1) (A1) (B2) (A1) (B2) (B2) (A1) (A1)
                 (B2) (A1) (B2)
 The electronic state of the initial guess is 1-A1.
 Requested convergence on RMS density matrix=1.00D-08 within 128 cycles.
 Requested convergence on MAX density matrix=1.00D-06.
 Requested convergence on             energy=1.00D-06.
 No special actions if energy rises.
 Integral accuracy reduced to 1.0D-05 until final iterations.
 Initial convergence to 1.0D-05 achieved.  Increase integral accuracy.
 SCF Done:  E(RB3LYP) =  -845.151549215     A.U. after   17 cycles
            NFock= 17  Conv=0.45D-08     -V/T= 1.9989

 **********************************************************************

            Population analysis using the SCF density.

 **********************************************************************

 Orbital symmetries:
       Occupied  (B2) (A1) (B2) (A1) (A1) (B2) (A1) (A1) (B2) (B2)
                 (A1) (A1) (B2) (B2) (A1) (A1) (B2) (A1) (B2) (A1)
                 (A1) (B2) (A1) (B2) (A1) (B2) (A1) (A1) (B2) (B2)
                 (A1) (A1) (B2) (A1) (B2) (A1) (B2) (A1) (B2) (B2)
                 (A1) (A1) (B2) (A1) (A1) (B2) (A1) (B2) (A1) (B2)
                 (A1) (B2) (A1) (B1) (B2) (A1) (A2) (B1) (B2) (A2)
                 (B1) (A1) (B1) (A2) (A1) (A2) (B2) (B1) (A1) (B1)
                 (A2) (B2) (B2)
       Virtual   (B1) (A2) (B1) (A2) (B1) (A1) (B1) (A2) (A1) (B2)
                 (A1) (B2) (A2) (A1) (B2) (B1) (B2) (A1) (B2) (A1)
                 (A1) (B2) (B1) (A2) (A1) (B2) (A1) (B2) (A1) (B2)
                 (A1) (B2) (A1) (B2) (A1) (B2) (A1) (A1) (B2) (B2)
                 (B2) (A1) (A1) (B2) (B1) (B2) (A1) (A2) (B1) (A1)
                 (B2) (B1) (A2) (B2) (A1) (A1) (B1) (A1) (B2) (B2)
                 (A1) (A2) (B1) (A2) (A1) (B2) (B1) (A1) (A2) (B2)
                 (A1) (A2) (B1) (B2) (B1) (A2) (B2) (B1) (A1) (A1)
                 (B1) (A2) (A1) (B2) (A1) (A2) (B2) (A1) (A1) (B1)
                 (B2) (B1) (A1) (B2) (A1) (A1) (B2) (A2) (B2) (A1)
                 (A1) (B2) (B2) (B2) (B2) (A1) (A1) (B2) (A1) (B2)
                 (A1) (B2) (A1) (A1) (B2) (A1) (A1) (B2) (B2) (A1)
                 (A1) (B2) (A1) (B2) (A1) (B2) (A1) (B2) (A1) (B2)
                 (A1) (B2) (A1) (B2) (A1) (A1) (B2) (A1) (B2) (A1)
                 (B2) (B2) (A1) (A1) (B2) (A1) (B2) (B2) (A1) (A1)
                 (B2) (A1) (B2)
 The electronic state is 1-A1.
 Alpha  occ. eigenvalues --  -10.19881 -10.19881 -10.19480 -10.19480 -10.18818
 Alpha  occ. eigenvalues --  -10.18817 -10.18545 -10.18286 -10.18286 -10.18187
 Alpha  occ. eigenvalues --  -10.18186 -10.17548 -10.17547 -10.17316 -10.17316
 Alpha  occ. eigenvalues --  -10.17134 -10.17079 -10.17079 -10.16662 -10.16662
 Alpha  occ. eigenvalues --  -10.16467 -10.16467  -0.93478  -0.90388  -0.88191
 Alpha  occ. eigenvalues --   -0.85525  -0.83963  -0.81620  -0.80237  -0.76258
 Alpha  occ. eigenvalues --   -0.75445  -0.71356  -0.69034  -0.67510  -0.67097
 Alpha  occ. eigenvalues --   -0.64689  -0.63215  -0.60829  -0.58047  -0.56663
 Alpha  occ. eigenvalues --   -0.56640  -0.55682  -0.52637  -0.51893  -0.49982
 Alpha  occ. eigenvalues --   -0.49335  -0.48268  -0.47953  -0.46833  -0.45800
 Alpha  occ. eigenvalues --   -0.45037  -0.44263  -0.43822  -0.43525  -0.41986
 Alpha  occ. eigenvalues --   -0.41457  -0.39929  -0.36877  -0.34372  -0.33553
 Alpha  occ. eigenvalues --   -0.31930  -0.30010  -0.29142  -0.26275  -0.25979
 Alpha  occ. eigenvalues --   -0.25539  -0.24872  -0.21659  -0.20877  -0.18238
 Alpha  occ. eigenvalues --   -0.18126  -0.17653  -0.11135
 Alpha virt. eigenvalues --   -0.06158  -0.05892  -0.03026   0.00610   0.02527
 Alpha virt. eigenvalues --    0.04880   0.05366   0.05452   0.07250   0.09425
 Alpha virt. eigenvalues --    0.09562   0.09762   0.10564   0.12830   0.13919
 Alpha virt. eigenvalues --    0.14585   0.15337   0.16169   0.17099   0.17863
 Alpha virt. eigenvalues --    0.18911   0.18949   0.19804   0.20536   0.21927
 Alpha virt. eigenvalues --    0.22239   0.22865   0.23123   0.23885   0.28182
 Alpha virt. eigenvalues --    0.28512   0.29119   0.30203   0.32103   0.34135
 Alpha virt. eigenvalues --    0.36028   0.36895   0.37755   0.38945   0.40220
 Alpha virt. eigenvalues --    0.43336   0.43880   0.45485   0.50339   0.50780
 Alpha virt. eigenvalues --    0.51364   0.51480   0.52602   0.53511   0.53563
 Alpha virt. eigenvalues --    0.53954   0.55300   0.55684   0.55891   0.57005
 Alpha virt. eigenvalues --    0.57763   0.58306   0.58634   0.58714   0.59997
 Alpha virt. eigenvalues --    0.60132   0.60183   0.60818   0.61170   0.61285
 Alpha virt. eigenvalues --    0.63088   0.63449   0.64781   0.65124   0.65305
 Alpha virt. eigenvalues --    0.66904   0.66994   0.67859   0.69362   0.70959
 Alpha virt. eigenvalues --    0.72716   0.73577   0.74198   0.74289   0.76571
 Alpha virt. eigenvalues --    0.76672   0.77879   0.79954   0.81402   0.82082
 Alpha virt. eigenvalues --    0.82137   0.82244   0.83303   0.83647   0.83917
 Alpha virt. eigenvalues --    0.85151   0.86183   0.87359   0.87923   0.88865
 Alpha virt. eigenvalues --    0.89602   0.90357   0.90825   0.91088   0.92342
 Alpha virt. eigenvalues --    0.93265   0.93458   0.94109   0.95308   0.97373
 Alpha virt. eigenvalues --    0.97595   0.99895   1.00903   1.01127   1.02428
 Alpha virt. eigenvalues --    1.03434   1.03458   1.04195   1.06075   1.07611
 Alpha virt. eigenvalues --    1.09237   1.10641   1.10681   1.15098   1.16525
 Alpha virt. eigenvalues --    1.17097   1.17245   1.20504   1.20630   1.22969
 Alpha virt. eigenvalues --    1.23706   1.27133   1.28677   1.28788   1.30787
 Alpha virt. eigenvalues --    1.32260   1.33314   1.35521   1.37019   1.38930
 Alpha virt. eigenvalues --    1.41691   1.45345   1.47033   1.49178   1.50067
 Alpha virt. eigenvalues --    1.61019   1.68349   1.70118   1.75657   1.77937
 Alpha virt. eigenvalues --    1.79182   1.80823   1.82168   1.83867   1.86945
 Alpha virt. eigenvalues --    1.88271   1.90606   1.94159
          Condensed to atoms (all electrons):
               1          2          3          4          5          6
     1  C    5.227015   0.416730   0.443449  -0.020563  -0.005516   0.010691
     2  C    0.416730   5.486473  -0.128464   0.463098  -0.150785  -0.205507
     3  C    0.443449  -0.128464   5.197642  -0.132884  -0.047325   0.013597
     4  C   -0.020563   0.463098  -0.132884   6.171606   0.186101  -0.183153
     5  C   -0.005516  -0.150785  -0.047325   0.186101   5.603727   0.023087
     6  C    0.010691  -0.205507   0.013597  -0.183153   0.023087   6.390731
     7  C   -0.026290  -0.110690   0.516126  -0.080614   0.270793   0.045767
     8  C   -0.000237   0.002404   0.007568  -0.119736   0.398429  -0.087916
     9  C    0.003501   0.002617  -0.000633  -0.072907   0.030346   0.127591
    10  C   -0.000131   0.013297   0.000064   0.050232  -0.008431  -0.090101
    11  C    0.000229   0.001116   0.001126  -0.288261  -0.091960   0.455498
    12  C    0.000072  -0.002366  -0.000004   0.000037   0.000064   0.013297
    13  C   -0.000060   0.000037   0.000002  -0.014326   0.000957   0.050232
    14  C    0.000005   0.000072  -0.000000  -0.000060  -0.000000  -0.000131
    15  C   -0.000000   0.000064   0.000000   0.000957  -0.000036  -0.008431
    16  C   -0.000001   0.000944  -0.000002   0.018929  -0.002338  -0.107013
    17  C   -0.000000  -0.000004  -0.000000   0.000002   0.000000   0.000064
    18  C   -0.000000  -0.000001   0.000000  -0.000036   0.000001   0.000732
    19  C    0.000000  -0.000000  -0.000000   0.000096  -0.000003  -0.001459
    20  C    0.000003  -0.000508   0.000066  -0.032769  -0.057220  -0.153636
    21  C    0.000001   0.000127   0.000001   0.001987   0.009380  -0.139383
    22  C   -0.000000  -0.000001  -0.000000   0.000283   0.000026   0.013339
    23  H    0.357881  -0.019016  -0.018904   0.001819   0.000287  -0.000021
    24  H   -0.132045   0.381694   0.027557  -0.064045  -0.000787  -0.023338
    25  H    0.005526   0.005689  -0.091239   0.036659  -0.094502  -0.006447
    26  H   -0.149681   0.027871   0.367262   0.006839   0.007510   0.000183
    27  H   -0.000000   0.000005   0.000000   0.000229   0.000144  -0.001962
    28  H    0.000001   0.000042  -0.000071   0.004404  -0.102129   0.003132
    29  H   -0.001670   0.030447   0.000057  -0.040068   0.002900  -0.061853
    30  H    0.000000   0.000001  -0.000000  -0.000052   0.000157  -0.001061
    31  H    0.000000  -0.000000  -0.000000   0.000001  -0.000000   0.000096
    32  H    0.000000  -0.000000  -0.000000   0.000002   0.000001   0.000229
    33  H    0.000000  -0.000000   0.000000  -0.000000  -0.000000  -0.000000
    34  H    0.000000   0.000000   0.000000  -0.000000  -0.000000  -0.000001
    35  H    0.000000   0.000000  -0.000000   0.000001  -0.000000  -0.000023
    36  H   -0.000279  -0.001809   0.000008   0.001227   0.000016   0.000807
               7          8          9         10         11         12
     1  C   -0.026290  -0.000237   0.003501  -0.000131   0.000229   0.000072
     2  C   -0.110690   0.002404   0.002617   0.013297   0.001116  -0.002366
     3  C    0.516126   0.007568  -0.000633   0.000064   0.001126  -0.000004
     4  C   -0.080614  -0.119736  -0.072907   0.050232  -0.288261   0.000037
     5  C    0.270793   0.398429   0.030346  -0.008431  -0.091960   0.000064
     6  C    0.045767  -0.087916   0.127591  -0.090101   0.455498   0.013297
     7  C    5.306692  -0.127445  -0.008303   0.000732   0.011918  -0.000001
     8  C   -0.127445   5.553409   0.011611  -0.001459  -0.129729  -0.000000
     9  C   -0.008303   0.011611   6.173677   0.127591  -0.265338   0.002617
    10  C    0.000732  -0.001459   0.127591   6.390731  -0.107013  -0.205507
    11  C    0.011918  -0.129729  -0.265338  -0.107013   5.955180   0.000944
    12  C   -0.000001  -0.000000   0.002617  -0.205507   0.000944   5.486473
    13  C   -0.000036   0.000096  -0.072907  -0.183153   0.018929   0.463098
    14  C   -0.000000   0.000000   0.003501   0.010691  -0.000001   0.416730
    15  C    0.000001  -0.000003   0.030346   0.023087  -0.002338  -0.150785
    16  C    0.000125  -0.008130  -0.265338   0.455498  -0.173811   0.001116
    17  C    0.000000  -0.000000  -0.000633   0.013597  -0.000002  -0.128464
    18  C   -0.000000  -0.000000  -0.008303   0.045767   0.000125  -0.110690
    19  C   -0.000000  -0.000022   0.011611  -0.087916  -0.008130   0.002404
    20  C    0.004471   0.346130   0.001249   0.013339   0.354353  -0.000001
    21  C    0.000140   0.035830  -0.039750  -0.139383   0.356159   0.000127
    22  C    0.000000   0.000643   0.001249  -0.153636   0.056026  -0.000508
    23  H    0.001914   0.000004   0.000082  -0.000000   0.000000  -0.000000
    24  H    0.005787  -0.000020  -0.019198   0.000807  -0.000658  -0.001809
    25  H    0.261234   0.000367   0.000554  -0.000023  -0.001415   0.000000
    26  H   -0.047086   0.000084  -0.000023  -0.000001   0.000003   0.000000
    27  H   -0.000022  -0.039726  -0.000059   0.000229  -0.041640  -0.000000
    28  H   -0.013366   0.303069   0.000265   0.000096   0.022557  -0.000000
    29  H   -0.000572   0.000158   0.348575  -0.061853  -0.003005   0.030447
    30  H    0.000001   0.003198  -0.000021  -0.001061  -0.043950   0.000001
    31  H   -0.000000   0.000001   0.000265   0.003132   0.000473   0.000042
    32  H    0.000000   0.000037  -0.000059  -0.001962   0.004934   0.000005
    33  H    0.000000  -0.000000   0.000082  -0.000021  -0.000000  -0.019016
    34  H   -0.000000   0.000000  -0.000023   0.000183  -0.000000   0.027871
    35  H    0.000000   0.000000   0.000554  -0.006447  -0.000003   0.005689
    36  H    0.000002  -0.000000  -0.019198  -0.023338  -0.000004   0.381694
              13         14         15         16         17         18
     1  C   -0.000060   0.000005  -0.000000  -0.000001  -0.000000  -0.000000
     2  C    0.000037   0.000072   0.000064   0.000944  -0.000004  -0.000001
     3  C    0.000002  -0.000000   0.000000  -0.000002  -0.000000   0.000000
     4  C   -0.014326  -0.000060   0.000957   0.018929   0.000002  -0.000036
     5  C    0.000957  -0.000000  -0.000036  -0.002338   0.000000   0.000001
     6  C    0.050232  -0.000131  -0.008431  -0.107013   0.000064   0.000732
     7  C   -0.000036  -0.000000   0.000001   0.000125   0.000000  -0.000000
     8  C    0.000096   0.000000  -0.000003  -0.008130  -0.000000  -0.000000
     9  C   -0.072907   0.003501   0.030346  -0.265338  -0.000633  -0.008303
    10  C   -0.183153   0.010691   0.023087   0.455498   0.013597   0.045767
    11  C    0.018929  -0.000001  -0.002338  -0.173811  -0.000002   0.000125
    12  C    0.463098   0.416730  -0.150785   0.001116  -0.128464  -0.110690
    13  C    6.171606  -0.020563   0.186101  -0.288261  -0.132884  -0.080614
    14  C   -0.020563   5.227015  -0.005516   0.000229   0.443449  -0.026290
    15  C    0.186101  -0.005516   5.603727  -0.091960  -0.047325   0.270793
    16  C   -0.288261   0.000229  -0.091960   5.955180   0.001126   0.011918
    17  C   -0.132884   0.443449  -0.047325   0.001126   5.197642   0.516126
    18  C   -0.080614  -0.026290   0.270793   0.011918   0.516126   5.306692
    19  C   -0.119736  -0.000237   0.398429  -0.129729   0.007568  -0.127445
    20  C    0.000283  -0.000000   0.000026   0.056026  -0.000000   0.000000
    21  C    0.001987   0.000001   0.009380   0.356159   0.000001   0.000140
    22  C   -0.032769   0.000003  -0.057220   0.354353   0.000066   0.004471
    23  H   -0.000000   0.000000  -0.000000  -0.000000   0.000000   0.000000
    24  H    0.001227  -0.000279   0.000016  -0.000004   0.000008   0.000002
    25  H    0.000001   0.000000  -0.000000  -0.000003  -0.000000   0.000000
    26  H   -0.000000   0.000000  -0.000000  -0.000000   0.000000  -0.000000
    27  H    0.000002   0.000000   0.000001   0.004934  -0.000000   0.000000
    28  H    0.000001   0.000000  -0.000000   0.000473  -0.000000  -0.000000
    29  H   -0.040068  -0.001670   0.002900  -0.003005   0.000057  -0.000572
    30  H   -0.000052   0.000000   0.000157  -0.043950  -0.000000   0.000001
    31  H    0.004404   0.000001  -0.102129   0.022557  -0.000071  -0.013366
    32  H    0.000229  -0.000000   0.000144  -0.041640   0.000000  -0.000022
    33  H    0.001819   0.357881   0.000287   0.000000  -0.018904   0.001914
    34  H    0.006839  -0.149681   0.007510   0.000003   0.367262  -0.047086
    35  H    0.036659   0.005526  -0.094502  -0.001415  -0.091239   0.261234
    36  H   -0.064045  -0.132045  -0.000787  -0.000658   0.027557   0.005787
              19         20         21         22         23         24
     1  C    0.000000   0.000003   0.000001  -0.000000   0.357881  -0.132045
     2  C   -0.000000  -0.000508   0.000127  -0.000001  -0.019016   0.381694
     3  C   -0.000000   0.000066   0.000001  -0.000000  -0.018904   0.027557
     4  C    0.000096  -0.032769   0.001987   0.000283   0.001819  -0.064045
     5  C   -0.000003  -0.057220   0.009380   0.000026   0.000287  -0.000787
     6  C   -0.001459  -0.153636  -0.139383   0.013339  -0.000021  -0.023338
     7  C   -0.000000   0.004471   0.000140   0.000000   0.001914   0.005787
     8  C   -0.000022   0.346130   0.035830   0.000643   0.000004  -0.000020
     9  C    0.011611   0.001249  -0.039750   0.001249   0.000082  -0.019198
    10  C   -0.087916   0.013339  -0.139383  -0.153636  -0.000000   0.000807
    11  C   -0.008130   0.354353   0.356159   0.056026   0.000000  -0.000658
    12  C    0.002404  -0.000001   0.000127  -0.000508  -0.000000  -0.001809
    13  C   -0.119736   0.000283   0.001987  -0.032769  -0.000000   0.001227
    14  C   -0.000237  -0.000000   0.000001   0.000003   0.000000  -0.000279
    15  C    0.398429   0.000026   0.009380  -0.057220  -0.000000   0.000016
    16  C   -0.129729   0.056026   0.356159   0.354353  -0.000000  -0.000004
    17  C    0.007568  -0.000000   0.000001   0.000066   0.000000   0.000008
    18  C   -0.127445   0.000000   0.000140   0.004471   0.000000   0.000002
    19  C    5.553409   0.000643   0.035830   0.346130  -0.000000  -0.000000
    20  C    0.000643   5.454650  -0.160712  -0.009881  -0.000000  -0.000004
    21  C    0.035830  -0.160712   5.637071  -0.160712   0.000000  -0.000006
    22  C    0.346130  -0.009881  -0.160712   5.454650   0.000000  -0.000000
    23  H   -0.000000  -0.000000   0.000000   0.000000   0.500868  -0.005241
    24  H   -0.000000  -0.000004  -0.000006  -0.000000  -0.005241   0.680363
    25  H    0.000000  -0.001936  -0.000026  -0.000000  -0.000018   0.000178
    26  H    0.000000   0.000002  -0.000000  -0.000000  -0.006471  -0.004818
    27  H    0.000037   0.389259  -0.016000  -0.000781  -0.000000   0.000000
    28  H    0.000001  -0.090014  -0.005577  -0.000024   0.000000   0.000003
    29  H    0.000158  -0.000034  -0.000157  -0.000034   0.000002   0.035566
    30  H    0.003198  -0.014802   0.408226  -0.014802   0.000000  -0.000000
    31  H    0.303069  -0.000024  -0.005577  -0.090014   0.000000  -0.000000
    32  H   -0.039726  -0.000781  -0.016000   0.389259   0.000000  -0.000000
    33  H    0.000004   0.000000   0.000000  -0.000000  -0.000000   0.000000
    34  H    0.000084  -0.000000  -0.000000   0.000002  -0.000000  -0.000000
    35  H    0.000367  -0.000000  -0.000026  -0.001936  -0.000000   0.000000
    36  H   -0.000020  -0.000000  -0.000006  -0.000004   0.000000   0.003249
              25         26         27         28         29         30
     1  C    0.005526  -0.149681  -0.000000   0.000001  -0.001670   0.000000
     2  C    0.005689   0.027871   0.000005   0.000042   0.030447   0.000001
     3  C   -0.091239   0.367262   0.000000  -0.000071   0.000057  -0.000000
     4  C    0.036659   0.006839   0.000229   0.004404  -0.040068  -0.000052
     5  C   -0.094502   0.007510   0.000144  -0.102129   0.002900   0.000157
     6  C   -0.006447   0.000183  -0.001962   0.003132  -0.061853  -0.001061
     7  C    0.261234  -0.047086  -0.000022  -0.013366  -0.000572   0.000001
     8  C    0.000367   0.000084  -0.039726   0.303069   0.000158   0.003198
     9  C    0.000554  -0.000023  -0.000059   0.000265   0.348575  -0.000021
    10  C   -0.000023  -0.000001   0.000229   0.000096  -0.061853  -0.001061
    11  C   -0.001415   0.000003  -0.041640   0.022557  -0.003005  -0.043950
    12  C    0.000000   0.000000  -0.000000  -0.000000   0.030447   0.000001
    13  C    0.000001  -0.000000   0.000002   0.000001  -0.040068  -0.000052
    14  C    0.000000   0.000000   0.000000   0.000000  -0.001670   0.000000
    15  C   -0.000000  -0.000000   0.000001  -0.000000   0.002900   0.000157
    16  C   -0.000003  -0.000000   0.004934   0.000473  -0.003005  -0.043950
    17  C   -0.000000   0.000000  -0.000000  -0.000000   0.000057  -0.000000
    18  C    0.000000  -0.000000   0.000000  -0.000000  -0.000572   0.000001
    19  C    0.000000   0.000000   0.000037   0.000001   0.000158   0.003198
    20  C   -0.001936   0.000002   0.389259  -0.090014  -0.000034  -0.014802
    21  C   -0.000026  -0.000000  -0.016000  -0.005577  -0.000157   0.408226
    22  C   -0.000000  -0.000000  -0.000781  -0.000024  -0.000034  -0.014802
    23  H   -0.000018  -0.006471  -0.000000   0.000000   0.000002   0.000000
    24  H    0.000178  -0.004818   0.000000   0.000003   0.035566  -0.000000
    25  H    0.818657  -0.006742   0.000012   0.015412   0.000039  -0.000000
    26  H   -0.006742   0.711735   0.000000  -0.000005  -0.000024   0.000000
    27  H    0.000012   0.000000   0.529142   0.002471  -0.000000  -0.003690
    28  H    0.015412  -0.000005   0.002471   0.775511   0.000004  -0.000350
    29  H    0.000039  -0.000024  -0.000000   0.000004   0.484447   0.000002
    30  H   -0.000000   0.000000  -0.003690  -0.000350   0.000002   0.546788
    31  H   -0.000000   0.000000  -0.000002  -0.000000   0.000004  -0.000350
    32  H   -0.000000   0.000000  -0.000190  -0.000002  -0.000000  -0.003690
    33  H   -0.000000  -0.000000   0.000000   0.000000   0.000002   0.000000
    34  H   -0.000000  -0.000000   0.000000   0.000000  -0.000024   0.000000
    35  H   -0.000000  -0.000000  -0.000000  -0.000000   0.000039  -0.000000
    36  H    0.000000  -0.000000  -0.000000  -0.000000   0.035566  -0.000000
              31         32         33         34         35         36
     1  C    0.000000   0.000000   0.000000   0.000000   0.000000  -0.000279
     2  C   -0.000000  -0.000000  -0.000000   0.000000   0.000000  -0.001809
     3  C   -0.000000  -0.000000   0.000000   0.000000  -0.000000   0.000008
     4  C    0.000001   0.000002  -0.000000  -0.000000   0.000001   0.001227
     5  C   -0.000000   0.000001  -0.000000  -0.000000  -0.000000   0.000016
     6  C    0.000096   0.000229  -0.000000  -0.000001  -0.000023   0.000807
     7  C   -0.000000   0.000000   0.000000  -0.000000   0.000000   0.000002
     8  C    0.000001   0.000037  -0.000000   0.000000   0.000000  -0.000000
     9  C    0.000265  -0.000059   0.000082  -0.000023   0.000554  -0.019198
    10  C    0.003132  -0.001962  -0.000021   0.000183  -0.006447  -0.023338
    11  C    0.000473   0.004934  -0.000000  -0.000000  -0.000003  -0.000004
    12  C    0.000042   0.000005  -0.019016   0.027871   0.005689   0.381694
    13  C    0.004404   0.000229   0.001819   0.006839   0.036659  -0.064045
    14  C    0.000001  -0.000000   0.357881  -0.149681   0.005526  -0.132045
    15  C   -0.102129   0.000144   0.000287   0.007510  -0.094502  -0.000787
    16  C    0.022557  -0.041640   0.000000   0.000003  -0.001415  -0.000658
    17  C   -0.000071   0.000000  -0.018904   0.367262  -0.091239   0.027557
    18  C   -0.013366  -0.000022   0.001914  -0.047086   0.261234   0.005787
    19  C    0.303069  -0.039726   0.000004   0.000084   0.000367  -0.000020
    20  C   -0.000024  -0.000781   0.000000  -0.000000  -0.000000  -0.000000
    21  C   -0.005577  -0.016000   0.000000  -0.000000  -0.000026  -0.000006
    22  C   -0.090014   0.389259  -0.000000   0.000002  -0.001936  -0.000004
    23  H    0.000000   0.000000  -0.000000  -0.000000  -0.000000   0.000000
    24  H   -0.000000  -0.000000   0.000000  -0.000000   0.000000   0.003249
    25  H   -0.000000  -0.000000  -0.000000  -0.000000  -0.000000   0.000000
    26  H    0.000000   0.000000  -0.000000  -0.000000  -0.000000  -0.000000
    27  H   -0.000002  -0.000190   0.000000   0.000000  -0.000000  -0.000000
    28  H   -0.000000  -0.000002   0.000000   0.000000  -0.000000  -0.000000
    29  H    0.000004  -0.000000   0.000002  -0.000024   0.000039   0.035566
    30  H   -0.000350  -0.003690   0.000000   0.000000  -0.000000  -0.000000
    31  H    0.775511   0.002471   0.000000  -0.000005   0.015412   0.000003
    32  H    0.002471   0.529142  -0.000000   0.000000   0.000012   0.000000
    33  H    0.000000  -0.000000   0.500868  -0.006471  -0.000018  -0.005241
    34  H   -0.000005   0.000000  -0.006471   0.711735  -0.006742  -0.004818
    35  H    0.015412   0.000012  -0.000018  -0.006742   0.818657   0.000178
    36  H    0.000003   0.000000  -0.005241  -0.004818   0.000178   0.680363
 Mulliken charges:
               1
     1  C   -0.128631
     2  C   -0.213578
     3  C   -0.155001
     4  C    0.104967
     5  C    0.027105
     6  C   -0.077637
     7  C   -0.011277
     8  C   -0.148614
     9  C   -0.105189
    10  C   -0.077637
    11  C   -0.082314
    12  C   -0.213578
    13  C    0.104967
    14  C   -0.128631
    15  C    0.027105
    16  C   -0.082314
    17  C   -0.155001
    18  C   -0.011277
    19  C   -0.148614
    20  C   -0.098179
    21  C   -0.169234
    22  C   -0.098179
    23  H    0.186814
    24  H    0.115795
    25  H    0.058023
    26  H    0.093364
    27  H    0.177607
    28  H    0.084097
    29  H    0.243239
    30  H    0.166103
    31  H    0.084097
    32  H    0.177607
    33  H    0.186814
    34  H    0.093364
    35  H    0.058023
    36  H    0.115795
 Sum of Mulliken charges =  -0.00000
 Mulliken charges with hydrogens summed into heavy atoms:
               1
     1  C    0.058183
     2  C   -0.097783
     3  C   -0.061637
     4  C    0.104967
     5  C    0.027105
     6  C   -0.077637
     7  C    0.046746
     8  C   -0.064517
     9  C    0.138050
    10  C   -0.077637
    11  C   -0.082314
    12  C   -0.097783
    13  C    0.104967
    14  C    0.058183
    15  C    0.027105
    16  C   -0.082314
    17  C   -0.061637
    18  C    0.046746
    19  C   -0.064517
    20  C    0.079428
    21  C   -0.003131
    22  C    0.079428
 Electronic spatial extent (au):  <R**2>=           5914.0976
 Charge=             -0.0000 electrons
 Dipole moment (field-independent basis, Debye):
    X=             -0.0000    Y=             -0.0000    Z=              0.7117  Tot=              0.7117
 Quadrupole moment (field-independent basis, Debye-Ang):
   XX=           -132.4348   YY=           -142.6423   ZZ=            -86.5077
   XY=             -0.0000   XZ=             -0.0000   YZ=             -0.0000
 Traceless Quadrupole moment (field-independent basis, Debye-Ang):
   XX=            -11.9065   YY=            -22.1141   ZZ=             34.0206
   XY=             -0.0000   XZ=             -0.0000   YZ=             -0.0000
 Octapole moment (field-independent basis, Debye-Ang**2):
  XXX=              0.0000  YYY=             -0.0000  ZZZ=              5.5364  XYY=              0.0000
  XXY=             -0.0000  XXZ=              0.6125  XZZ=              0.0000  YZZ=             -0.0000
  YYZ=             -2.6486  XYZ=             -0.0000
 Hexadecapole moment (field-independent basis, Debye-Ang**3):
 XXXX=           -137.2660 YYYY=          -5852.0528 ZZZZ=          -2113.0521 XXXY=             -0.0000
 XXXZ=             -0.0000 YYYX=             -0.0000 YYYZ=             -0.0000 ZZZX=             -0.0000
 ZZZY=              0.0000 XXYY=           -976.7403 XXZZ=           -545.6628 YYZZ=          -1169.1765
 XXYZ=              0.0000 YYXZ=             -0.0000 ZZXY=             -0.0000
 N-N= 1.637280633758D+03 E-N=-5.239231210134D+03  KE= 8.460943624405D+02
 Symmetry A1   KE= 4.446341311722D+02
 Symmetry A2   KE= 1.100386632662D+01
 Symmetry B1   KE= 1.275244298040D+01
 Symmetry B2   KE= 3.777039219613D+02
 Calling FoFJK, ICntrl=      2127 FMM=F ISym2X=1 I1Cent= 0 IOpClX= 0 NMat=1 NMatS=1 NMatT=0.
 ***** Axes restored to original set *****
 -------------------------------------------------------------------
 Center     Atomic                   Forces (Hartrees/Bohr)
 Number     Number              X              Y              Z
 -------------------------------------------------------------------
      1        6           0.012330015    0.136230045   -0.000000000
      2        6          -0.011010926   -0.020834340   -0.000000000
      3        6          -0.017901937    0.013543135   -0.000000000
      4        6          -0.021442176    0.120137071    0.000000000
      5        6          -0.055248512   -0.141507345   -0.000000000
      6        6           0.029940060   -0.156380381   -0.000000000
      7        6          -0.024225737   -0.014109191   -0.000000000
      8        6          -0.009790733    0.044978866   -0.000000000
      9        6           0.000000000    0.218797040    0.000000000
     10        6          -0.029940060   -0.156380381    0.000000000
     11        6           0.005580249    0.161106273   -0.000000000
     12        6           0.011010926   -0.020834340    0.000000000
     13        6           0.021442176    0.120137071    0.000000000
     14        6          -0.012330015    0.136230045    0.000000000
     15        6           0.055248512   -0.141507345    0.000000000
     16        6          -0.005580249    0.161106273   -0.000000000
     17        6           0.017901937    0.013543135   -0.000000000
     18        6           0.024225737   -0.014109191   -0.000000000
     19        6           0.009790733    0.044978866   -0.000000000
     20        6          -0.091987827   -0.163482705   -0.000000000
     21        6           0.000000000   -0.185452107    0.000000000
     22        6           0.091987827   -0.163482705   -0.000000000
     23        1           0.000002374    0.020549994   -0.000000000
     24        1           0.144143667   -0.039801498    0.000000000
     25        1          -0.157085231    0.034950444   -0.000000000
     26        1          -0.155492905   -0.032893265   -0.000000000
     27        1          -0.005242179   -0.022320811    0.000000000
     28        1          -0.156395952    0.034479834   -0.000000000
     29        1           0.000000000    0.042102451   -0.000000000
     30        1           0.000000000   -0.024739639   -0.000000000
     31        1           0.156395952    0.034479834   -0.000000000
     32        1           0.005242179   -0.022320811    0.000000000
     33        1          -0.000002374    0.020549994   -0.000000000
     34        1           0.155492905   -0.032893265   -0.000000000
     35        1           0.157085231    0.034950444   -0.000000000
     36        1          -0.144143667   -0.039801498    0.000000000
 -------------------------------------------------------------------
 Cartesian Forces:  Max     0.218797040 RMS     0.073233544

 GradGradGradGradGradGradGradGradGradGradGradGradGradGradGradGradGradGrad
 Berny optimization.
 FormGI is forming the generalized inverse of G from B-inverse, IUseBI=4.
 Internal  Forces:  Max     0.265496480 RMS     0.084312332
 Search for a local minimum.
 Step number   1 out of a maximum of  216
 All quantities printed in internal units (Hartrees-Bohrs-Radians)
 Mixed Optimization -- RFO/linear search
 Second derivative matrix not updated -- first step.
 ITU=  0
     Eigenvalues ---    0.01901   0.01901   0.01901   0.01901   0.01901
     Eigenvalues ---    0.01901   0.01901   0.01901   0.01901   0.01950
     Eigenvalues ---    0.01951   0.01957   0.01957   0.01973   0.01979
     Eigenvalues ---    0.01986   0.01989   0.01998   0.02000   0.02001
     Eigenvalues ---    0.02005   0.02012   0.02013   0.02016   0.02017
     Eigenvalues ---    0.02024   0.02024   0.02033   0.02034   0.02047
     Eigenvalues ---    0.02047   0.02054   0.02055   0.16000   0.16000
     Eigenvalues ---    0.16000   0.16000   0.16000   0.16000   0.16000
     Eigenvalues ---    0.16000   0.16000   0.16000   0.16000   0.16000
     Eigenvalues ---    0.16000   0.16000   0.22000   0.22000   0.22406
     Eigenvalues ---    0.22438   0.22756   0.22799   0.23216   0.24180
     Eigenvalues ---    0.24315   0.24358   0.24640   0.24683   0.25000
     Eigenvalues ---    0.25000   0.25000   0.33682   0.33682   0.33682
     Eigenvalues ---    0.33682   0.33682   0.33682   0.34791   0.36829
     Eigenvalues ---    0.37402   0.38167   0.40027   0.40759   0.40948
     Eigenvalues ---    0.41352   0.42208   0.42234   0.43344   0.43344
     Eigenvalues ---    0.43344   0.43344   0.43344   0.43344   0.43344
     Eigenvalues ---    0.43344   0.44207   0.44458   0.44612   0.44719
     Eigenvalues ---    0.45264   0.45621   0.45621   0.45621   0.55117
     Eigenvalues ---    0.55117   0.55117   0.55117   0.55117   0.55117
     Eigenvalues ---    0.55117   0.55117
 RFO step:  Lambda=-1.08945676D+00 EMin= 1.90073763D-02
 Linear search not attempted -- first point.
 Maximum step size (   0.300) exceeded in Quadratic search.
    -- Step size scaled by   0.336
 Iteration  1 RMS(Cart)=  0.09823138 RMS(Int)=  0.00042431
 Iteration  2 RMS(Cart)=  0.00089473 RMS(Int)=  0.00005329
 Iteration  3 RMS(Cart)=  0.00000038 RMS(Int)=  0.00005329
 ClnCor:  largest displacement from symmetrization is 2.92D-09 for atom    34.
 Variable       Old X    -DE/DX   Delta X   Delta X   Delta X     New X
                                 (Linear)    (Quad)   (Total)
    R1        2.67248   0.06078   0.00000   0.01335   0.01341   2.68589
    R2        2.67248   0.06179   0.00000   0.01337   0.01334   2.68582
    R3        2.07870  -0.02055   0.00000  -0.00483  -0.00483   2.07386
    R4        2.64562  -0.01230   0.00000  -0.00253  -0.00246   2.64315
    R5        1.81728   0.13007   0.00000   0.02660   0.02660   1.84389
    R6        2.64562  -0.06449   0.00000  -0.01414  -0.01421   2.63141
    R7        1.81728   0.13321   0.00000   0.02724   0.02724   1.84453
    R8        2.67248   0.11583   0.00000   0.02589   0.02581   2.69829
    R9        2.67248   0.18109   0.00000   0.04022   0.04029   2.71276
   R10        2.67248   0.06940   0.00000   0.01533   0.01527   2.68775
   R11        2.64562  -0.03259   0.00000  -0.00721  -0.00734   2.63828
   R12        2.67248   0.10109   0.00000   0.02230   0.02230   2.69478
   R13        2.64562  -0.01774   0.00000  -0.00372  -0.00359   2.64203
   R14        1.81728   0.13579   0.00000   0.02777   0.02777   1.84506
   R15        2.67248   0.02850   0.00000   0.00596   0.00589   2.67837
   R16        1.81728   0.13497   0.00000   0.02760   0.02760   1.84489
   R17        2.67248   0.10109   0.00000   0.02230   0.02230   2.69478
   R18        2.07870  -0.04210   0.00000  -0.00991  -0.00991   2.06879
   R19        2.67248   0.18109   0.00000   0.04022   0.04029   2.71276
   R20        2.64562  -0.01774   0.00000  -0.00372  -0.00359   2.64203
   R21        2.67248   0.12433   0.00000   0.02726   0.02737   2.69985
   R22        2.67248   0.09568   0.00000   0.02106   0.02106   2.69353
   R23        2.64562  -0.01230   0.00000  -0.00253  -0.00246   2.64315
   R24        2.67248   0.06078   0.00000   0.01335   0.01341   2.68589
   R25        1.81728   0.13007   0.00000   0.02660   0.02660   1.84389
   R26        2.67248   0.11583   0.00000   0.02589   0.02581   2.69829
   R27        2.67248   0.06179   0.00000   0.01337   0.01334   2.68582
   R28        2.07870  -0.02055   0.00000  -0.00483  -0.00483   2.07386
   R29        2.67248   0.06940   0.00000   0.01533   0.01527   2.68775
   R30        2.64562  -0.03259   0.00000  -0.00721  -0.00734   2.63828
   R31        2.67248   0.09568   0.00000   0.02106   0.02106   2.69353
   R32        2.67248   0.12433   0.00000   0.02726   0.02737   2.69985
   R33        2.64562  -0.06449   0.00000  -0.01414  -0.01421   2.63141
   R34        1.81728   0.13321   0.00000   0.02724   0.02724   1.84453
   R35        1.81728   0.13579   0.00000   0.02777   0.02777   1.84506
   R36        2.67248   0.02850   0.00000   0.00596   0.00589   2.67837
   R37        1.81728   0.13497   0.00000   0.02760   0.02760   1.84489
   R38        2.07870  -0.02232   0.00000  -0.00525  -0.00525   2.07345
   R39        2.07870  -0.02474   0.00000  -0.00582  -0.00582   2.07288
   R40        2.07870  -0.02232   0.00000  -0.00525  -0.00525   2.07345
    A1        1.57080   0.18216   0.00000   0.04630   0.04632   1.61711
    A2        2.35619  -0.09108   0.00000  -0.02315  -0.02316   2.33304
    A3        2.35619  -0.09108   0.00000  -0.02315  -0.02316   2.33304
    A4        2.35619  -0.06521   0.00000  -0.01659  -0.01651   2.33968
    A5        1.57080   0.09965   0.00000   0.02630   0.02626   1.59706
    A6        2.35619  -0.03444   0.00000  -0.00971  -0.00975   2.34645
    A7        2.35619  -0.08667   0.00000  -0.02251  -0.02260   2.33360
    A8        1.57080   0.12211   0.00000   0.03241   0.03245   1.60325
    A9        2.35619  -0.03543   0.00000  -0.00990  -0.00986   2.34634
   A10        2.35619  -0.14873   0.00000  -0.03708  -0.03701   2.31919
   A11        2.35619  -0.04980   0.00000  -0.01307  -0.01307   2.34313
   A12        1.57080   0.19853   0.00000   0.05015   0.05007   1.62087
   A13        1.57080   0.20110   0.00000   0.05096   0.05099   1.62179
   A14        2.35619  -0.09666   0.00000  -0.02448  -0.02464   2.33155
   A15        2.35619  -0.10444   0.00000  -0.02648  -0.02635   2.32984
   A16        1.57080   0.26550   0.00000   0.06650   0.06639   1.63719
   A17        2.35619  -0.13519   0.00000  -0.03326  -0.03314   2.32305
   A18        2.35619  -0.13031   0.00000  -0.03324  -0.03325   2.32295
   A19        2.35619  -0.08265   0.00000  -0.02107  -0.02119   2.33500
   A20        2.35619  -0.03715   0.00000  -0.01054  -0.01048   2.34572
   A21        1.57080   0.11980   0.00000   0.03161   0.03167   1.60247
   A22        2.35619  -0.07144   0.00000  -0.01893  -0.01906   2.33713
   A23        2.35619  -0.04261   0.00000  -0.01157  -0.01150   2.34469
   A24        1.57080   0.11405   0.00000   0.03050   0.03057   1.60137
   A25        1.57080   0.24493   0.00000   0.06242   0.06248   1.63328
   A26        2.35619  -0.12247   0.00000  -0.03121  -0.03124   2.32495
   A27        2.35619  -0.12247   0.00000  -0.03121  -0.03124   2.32495
   A28        1.57080   0.26550   0.00000   0.06650   0.06639   1.63719
[...]
 -0.00242821,0.,0.,-0.03859265,0.,0.,-0.00087258,0.,0.,0.00022711,0.,0.
 ,0.00952725,0.,0.,-0.00000335,0.,0.,0.00005647,0.,0.,-0.00000011,0.,0.
 ,0.00001376,0.,0.,-0.00103321,0.,0.,0.00000437,0.,0.,-0.00001934,0.,0.
 ,0.00005088,0.,0.,0.00485910,0.,0.,0.00032680,0.,0.,-0.00002637,0.,0.,
 0.00003404,0.,0.,0.00001439,0.,0.,0.00032645,0.,0.,0.00007551,0.,0.,-0
 .00574878,0.,0.,0.02577569,0.00018362,-0.00048836,0.,-0.00243791,0.000
 83508,0.,0.00011964,-0.00003169,0.,0.00090616,-0.00063131,0.,0.0000118
 0,0.00003758,0.,0.00373289,0.03061568,0.,0.00019274,-0.00010544,0.,0.0
 0012582,0.00006886,0.,-0.05837357,0.,0.,0.00373289,-0.03061568,0.,-0.0
 0481136,0.00119757,0.,-0.00243791,-0.00083508,0.,0.00090616,0.00063131
 ,0.,0.00018363,0.00048836,0.,0.00001180,-0.00003758,0.,-0.00481136,-0.
 00119757,0.,0.00011964,0.00003169,0.,0.00019274,0.00010544,0.,0.000125
 82,-0.00006886,0.,0.00051604,0.00127433,0.,-0.00088945,0.,0.,0.0005160
 4,-0.00127433,0.,-0.00005410,0.00000197,0.,-0.00264581,-0.00256735,0.,
 0.00004780,-0.00000914,0.,0.00007575,-0.00002926,0.,-0.00034693,0.0002
 3658,0.,-0.00001779,-0.00005325,0.,0.06789500,-0.00029754,0.00055065,0
 .,-0.00175703,-0.00058487,0.,-0.00012607,-0.00002139,0.,-0.00098551,-0
 .00124967,0.,0.00018686,-0.00007970,0.,-0.00104873,-0.01373273,0.,-0.0
 0008969,-0.00000870,0.,0.00006758,-0.00007330,0.,0.,-0.34418013,0.,0.0
 0104873,-0.01373273,0.,0.00248789,0.00119000,0.,0.00175703,-0.00058487
 ,0.,0.00098551,-0.00124967,0.,0.00029754,0.00055065,0.,-0.00018686,-0.
 00007970,0.,-0.00248789,0.00119000,0.,0.00012607,-0.00002139,0.,0.0000
 8969,-0.00000870,0.,-0.00006758,-0.00007330,0.,-0.00058278,-0.00061545
 ,0.,0.,0.00052738,0.,0.00058278,-0.00061544,0.,0.00001499,-0.00000305,
 0.,-0.00268340,0.00056326,0.,0.00001195,0.00001468,0.,-0.00004095,0.00
 003314,0.,0.00022126,-0.00013448,0.,0.00004475,0.00003231,0.,0.,0.3721
 0438,0.,0.,-0.00031343,0.,0.,-0.00057722,0.,0.,0.00004840,0.,0.,-0.003
 32094,0.,0.,-0.00016220,0.,0.,0.00391019,0.,0.,0.00010421,0.,0.,-0.000
 16006,0.,0.,-0.03698879,0.,0.,0.00391019,0.,0.,0.00659823,0.,0.,-0.000
 57722,0.,0.,-0.00332094,0.,0.,-0.00031343,0.,0.,-0.00016220,0.,0.,0.00
 659823,0.,0.,0.00004840,0.,0.,0.00010421,0.,0.,-0.00016006,0.,0.,0.000
 12818,0.,0.,0.00003270,0.,0.,0.00012818,0.,0.,-0.00002577,0.,0.,0.0019
 3957,0.,0.,0.00003591,0.,0.,0.00007824,0.,0.,0.00005293,0.,0.,0.000038
 42,0.,0.,0.02155498,-0.00000790,-0.00009587,0.,-0.00040407,0.00000556,
 0.,0.00001193,-0.00003532,0.,0.00039638,-0.00137125,0.,0.00021817,-0.0
 0020997,0.,-0.00449791,-0.00108624,0.,0.00000046,0.00014841,0.,0.00012
 861,0.00044364,0.,-0.00092618,0.,0.,-0.00449791,0.00108624,0.,0.001958
 04,-0.03001407,0.,-0.00040407,-0.00000556,0.,0.00039638,0.00137125,0.,
 -0.00000790,0.00009587,0.,0.00021817,0.00020997,0.,0.00195804,0.030014
 07,0.,0.00001193,0.00003532,0.,0.00000046,-0.00014841,0.,0.00012861,-0
 .00044364,0.,0.00139132,-0.00202238,0.,-0.06005433,0.,0.,0.00139133,0.
 00202238,0.,-0.00003830,-0.00002280,0.,0.00003069,0.00001183,0.,-0.000
 03662,-0.00001342,0.,-0.00000248,0.00000412,0.,-0.00030450,0.00091220,
 0.,-0.00001143,0.00001257,0.,0.00017130,0.,0.,0.06314444,0.00007062,-0
 .00004718,0.,-0.00033913,-0.00004137,0.,-0.00005449,0.00002606,0.,0.00
 076446,-0.00068660,0.,0.00009101,0.00014767,0.,-0.00265770,0.00117578,
 0.,-0.00004299,0.00002279,0.,-0.00031455,0.00011878,0.,0.,0.00059413,0
 .,0.00265770,0.00117578,0.,0.00313985,-0.01370625,0.,0.00033913,-0.000
 04137,0.,-0.00076446,-0.00068660,0.,-0.00007062,-0.00004719,0.,-0.0000
 9101,0.00014767,0.,-0.00313985,-0.01370625,0.,0.00005449,0.00002606,0.
 ,0.00004299,0.00002280,0.,0.00031455,0.00011878,0.,0.00195290,0.000818
 62,0.,0.,-0.33472971,0.,-0.00195290,0.00081862,0.,-0.00003174,-0.00002
 803,0.,0.00002311,0.00002326,0.,-0.00003987,0.00000322,0.,-0.00001406,
 -0.00000095,0.,-0.00090364,0.00065960,0.,-0.00007988,-0.00001103,0.,0.
 ,-0.00021307,0.,0.,0.35739989,0.,0.,0.00003018,0.,0.,0.00006956,0.,0.,
 -0.00001946,0.,0.,0.00040450,0.,0.,-0.00012419,0.,0.,0.00562724,0.,0.,
 0.00001891,0.,0.,-0.00002807,0.,0.,0.00023312,0.,0.,0.00562724,0.,0.,0
 .00431707,0.,0.,0.00006956,0.,0.,0.00040450,0.,0.,0.00003018,0.,0.,-0.
 00012419,0.,0.,0.00431707,0.,0.,-0.00001946,0.,0.,0.00001891,0.,0.,-0.
 00002807,0.,0.,-0.00437130,0.,0.,-0.03696053,0.,0.,-0.00437130,0.,0.,-
 0.00005773,0.,0.,0.00004552,0.,0.,0.00001617,0.,0.,0.00000233,0.,0.,0.
 00034160,0.,0.,0.00028811,0.,0.,-0.00134820,0.,0.,0.02495473,0.0000115
 4,-0.00000182,0.,-0.00003153,-0.00002827,0.,-0.00001203,0.00000967,0.,
 0.00005073,0.00004020,0.,-0.00000850,0.00005257,0.,-0.00001835,0.00012
 387,0.,0.00000058,-0.00003104,0.,-0.00008368,0.00002797,0.,0.00015238,
 -0.00009522,0.,0.00010954,0.00028055,0.,-0.00038149,0.00030254,0.,-0.0
 0012702,0.00039124,0.,0.00096346,0.00100798,0.,0.00029899,0.00002758,0
 .,0.00249008,0.00377530,0.,-0.00169752,0.00431240,0.,0.00003033,-0.000
 37274,0.,0.00103501,0.00150776,0.,-0.26554386,-0.12210611,0.,-0.000029
 35,-0.00018184,0.,-0.00057784,-0.00124843,0.,-0.02071726,-0.01810109,0
 .,-0.00000159,-0.00001078,0.,0.00000721,0.00001297,0.,-0.00000782,0.00
 000648,0.,-0.00001030,-0.00000569,0.,0.00000696,0.00001994,0.,-0.00002
 916,-0.00000692,0.,-0.00001779,-0.00004475,0.,-0.00001143,0.00007988,0
 .,0.28270215,-0.00001403,0.00000122,0.,0.00002128,-0.00000167,0.,0.000
 00984,-0.00001069,0.,-0.00003540,0.00000963,0.,-0.00000735,-0.00002230
 ,0.,0.00002395,-0.00010471,0.,0.00000633,0.00001578,0.,0.00002377,0.00
 002284,0.,-0.00017573,0.00014707,0.,0.00071474,-0.00029193,0.,0.000226
 57,-0.00005407,0.,-0.00171213,-0.00020296,0.,0.00264458,-0.00472284,0.
 ,0.00008344,0.00016015,0.,-0.02912273,-0.01389731,0.,0.00275599,-0.001
 49624,0.,0.00033283,0.00012599,0.,-0.00221739,0.00135527,0.,-0.1229283
 2,-0.13260938,0.,0.00001659,0.00005066,0.,0.00029684,0.00064385,0.,0.0
 1756892,0.01119735,0.,0.00000123,0.00000087,0.,0.00000054,0.00000653,0
 .,-0.00000080,0.00000042,0.,-0.00000158,-0.00000022,0.,-0.00000568,0.0
 0000234,0.,0.00000692,0.00000287,0.,0.00005325,0.00003231,0.,-0.000012
 57,-0.00001103,0.,0.13030310,0.13914778,0.,0.,-0.00000011,0.,0.,-0.000
 00335,0.,0.,0.00000437,0.,0.,0.00005647,0.,0.,0.00001376,0.,0.,0.00022
 711,0.,0.,-0.00001934,0.,0.,0.00005088,0.,0.,-0.00087258,0.,0.,0.00007
 555,0.,0.,-0.00103321,0.,0.,0.00015814,0.,0.,0.00329582,0.,0.,-0.00004
 383,0.,0.,0.00365981,0.,0.,0.00952725,0.,0.,-0.00004263,0.,0.,-0.00242
 821,0.,0.,-0.03859265,0.,0.,-0.00002637,0.,0.,0.00032680,0.,0.,0.00485
 910,0.,0.,0.00000244,0.,0.,0.00000115,0.,0.,0.00000226,0.,0.,-0.000001
 61,0.,0.,-0.00001415,0.,0.,0.00001331,0.,0.,0.00003842,0.,0.,0.0002881
 1,0.,0.,0.02577569,-0.00000848,0.00002709,0.,0.00000674,-0.00003735,0.
 ,-0.00001234,-0.00000968,0.,0.00002131,0.00008900,0.,-0.00002925,-0.00
 002628,0.,0.00019170,-0.00006111,0.,0.00000042,0.00001858,0.,0.0000073
 4,-0.00002026,0.,0.00042309,-0.00138386,0.,-0.00472377,-0.00089179,0.,
 0.00013894,0.00045888,0.,0.00024699,-0.00007847,0.,-0.00062431,0.00020
 130,0.,-0.00013557,-0.00009008,0.,-0.00465580,0.00074878,0.,0.00233460
 ,-0.02936731,0.,-0.00034718,0.00023870,0.,0.00067635,0.00113723,0.,0.0
 0225022,0.03215997,0.,-0.00002046,-0.00001197,0.,0.00163364,-0.0017700
 3,0.,-0.05989293,0.00790404,0.,0.00000121,0.00000065,0.,-0.00001025,0.
 00002619,0.,-0.00000406,-0.00000132,0.,-0.00000004,0.00000215,0.,-0.00
 003040,0.00001389,0.,0.00000696,0.00000568,0.,-0.00034693,-0.00022126,
 0.,-0.00030450,0.00090364,0.,0.00099391,-0.00037144,0.,0.06224190,0.00
 000679,0.00003179,0.,-0.00001051,-0.00004795,0.,-0.00003564,0.00000199
 ,0.,0.00005494,0.00011767,0.,-0.00005005,0.00003179,0.,-0.00001545,0.0
 0024753,0.,0.00000008,-0.00002946,0.,-0.00006418,-0.00005791,0.,0.0007
 0684,-0.00076322,0.,-0.00258556,0.00105454,0.,-0.00036815,0.00019360,0
 .,-0.00003060,0.00002625,0.,-0.00018578,0.00043077,0.,0.00006532,0.000
 06534,0.,0.00239965,0.00156524,0.,0.00363782,-0.01373118,0.,0.00031024
 ,-0.00008954,0.,-0.00044797,-0.00064921,0.,-0.00353691,-0.01177373,0.,
 0.00005356,-0.00012279,0.,0.00180424,0.00083007,0.,0.00877997,-0.33853
 086,0.,-0.00000043,-0.00001048,0.,0.00000145,0.00002585,0.,-0.00001353
 ,0.00000619,0.,-0.00001035,-0.00000336,0.,-0.00001389,0.00003815,0.,-0
 .00001994,0.00000234,0.,-0.00023658,-0.00013448,0.,-0.00091220,0.00065
 960,0.,0.00046173,0.00105688,0.,-0.00979897,0.35966673,0.,0.,0.0000001
 0,0.,0.,-0.00000994,0.,0.,-0.00000538,0.,0.,0.00001700,0.,0.,-0.000001
 09,0.,0.,-0.00004206,0.,0.,-0.00000264,0.,0.,0.00001385,0.,0.,0.000169
 71,0.,0.,0.00339291,0.,0.,-0.00003683,0.,0.,-0.00106545,0.,0.,0.000087
 46,0.,0.,0.00026746,0.,0.,0.00946304,0.,0.,0.00372220,0.,0.,-0.0008889
 0,0.,0.,0.00029995,0.,0.,0.00483181,0.,0.,0.00004364,0.,0.,-0.00253919
 ,0.,0.,-0.03846647,0.,0.,0.00000251,0.,0.,0.00000570,0.,0.,0.00000255,
 0.,0.,0.00000180,0.,0.,0.00002495,0.,0.,-0.00001415,0.,0.,0.00005293,0
 .,0.,0.00034160,0.,0.,-0.00574878,0.,0.,0.02571885,-0.00000824,-0.0000
 0149,0.,-0.00002843,0.00002022,0.,-0.00000096,-0.00001400,0.,-0.000010
 61,0.00000650,0.,-0.00000516,-0.00002147,0.,0.00004866,-0.00009467,0.,
 0.00001080,0.00000124,0.,0.00000059,0.00002704,0.,-0.00001218,0.000039
 92,0.,0.00080309,0.00122405,0.,0.00006545,0.00004174,0.,0.00132211,0.0
 3180292,0.,-0.00484952,0.00120420,0.,-0.06107901,0.01245637,0.,-0.0010
 6361,0.00017296,0.,-0.00033862,0.00013594,0.,0.00486869,-0.02988922,0.
 ,-0.00446570,-0.00217132,0.,0.00025584,-0.00013782,0.,-0.00001652,-0.0
 0001607,0.,-0.00002770,0.00014909,0.,-0.00017250,-0.00008737,0.,-0.000
 00765,-0.00000685,0.,0.00000364,0.00000493,0.,-0.00000055,-0.00000078,
 0.,-0.00000075,-0.00000110,0.,0.00000121,0.00000043,0.,-0.00000159,-0.
 00000123,0.,-0.00005410,-0.00001499,0.,-0.00003830,0.00003174,0.,0.000
 02627,0.00008455,0.,0.00001466,0.00000676,0.,0.06257349,0.00000261,-0.
 00000246,0.,0.00003864,0.00000249,0.,0.00001002,0.00000897,0.,-0.00002
 385,-0.00004041,0.,0.00001523,-0.00001305,0.,-0.00001129,0.00001828,0.
 ,-0.00001278,0.00001876,0.,0.00002959,-0.00002412,0.,0.00002676,-0.000
 08195,0.,-0.00048975,-0.00053715,0.,0.00000452,-0.00001678,0.,-0.00327
 939,-0.01070350,0.,0.00227149,0.00134334,0.,0.01303670,-0.34108246,0.,
 -0.00008502,0.00083764,0.,0.00028458,-0.00004776,0.,0.00506271,-0.0128
 9844,0.,-0.00319323,0.00052957,0.,0.00001459,0.00007552,0.,-0.00000624
 ,0.00005448,0.,-0.00001622,-0.00005197,0.,0.00004878,0.00000559,0.,0.0
 0000685,0.00001433,0.,-0.00001403,-0.00001096,0.,0.00000571,-0.0000040
 5,0.,0.00000888,0.00000464,0.,-0.00000065,-0.00001048,0.,0.00001078,0.
 00000087,0.,-0.00000197,-0.00000305,0.,0.00002280,-0.00002803,0.,-0.00
 001937,0.00000697,0.,0.00001323,-0.00003179,0.,-0.01391232,0.36143310,
 0.,0.,-0.00000629,0.,0.,-0.00001695,0.,0.,-0.00000318,0.,0.,0.00000674
 ,0.,0.,-0.00000331,0.,0.,-0.00006540,0.,0.,-0.00000209,0.,0.,0.0000012
 5,0.,0.,0.00019857,0.,0.,0.00036334,0.,0.,0.00006715,0.,0.,0.00335502,
 0.,0.,0.00791981,0.,0.,-0.03787650,0.,0.,-0.00033316,0.,0.,-0.00051643
 ,0.,0.,0.00321452,0.,0.,0.00600635,0.,0.,-0.00115253,0.,0.,-0.00000775
 ,0.,0.,0.00000027,0.,0.,0.00022804,0.,0.,0.00000441,0.,0.,0.00002039,0
 .,0.,0.00000149,0.,0.,0.00000317,0.,0.,0.00000251,0.,0.,0.00000244,0.,
 0.,-0.00002577,0.,0.,-0.00005773,0.,0.,0.00003404,0.,0.,0.00009587,0.,
 0.,0.02623998,-0.00000618,0.00001349,0.,-0.00000497,-0.00002033,0.,-0.
 00000935,-0.00000598,0.,0.00002465,0.00002435,0.,-0.00001773,0.0000068
 1,0.,0.00001499,0.00004495,0.,0.00000707,-0.00001225,0.,-0.00001533,-0
 .00000127,0.,-0.00005651,-0.00003615,0.,0.00001524,0.00008666,0.,-0.00
 002376,-0.00000401,0.,-0.00216690,-0.00406100,0.,0.00048346,-0.0008165
 9,0.,-0.01899739,0.01610812,0.,0.00167495,-0.00061788,0.,-0.00004925,0
 .00001383,0.,-0.28330474,0.11478005,0.,0.00215679,-0.00344343,0.,-0.00
 016742,-0.00014311,0.,0.00001592,-0.00002642,0.,0.00001794,-0.00000284
 ,0.,0.00010310,0.00010972,0.,-0.00000075,-0.00000888,0.,0.00000899,0.0
 0001443,0.,-0.00000681,0.00000501,0.,-0.00000907,-0.00000338,0.,-0.000
 00004,0.00001035,0.,-0.00001030,0.00000158,0.,0.00007575,0.00004095,0.
 ,-0.00000248,0.00001406,0.,0.00002820,0.00003671,0.,-0.00001959,0.0000
 1111,0.,0.00100217,-0.00041569,0.,0.29936977,0.00001107,0.00000032,0.,
 0.00001296,-0.00001116,0.,0.00000065,0.00001210,0.,0.00000747,-0.00000
 145,0.,0.00000872,0.00001435,0.,-0.00001639,0.00007972,0.,-0.00001264,
 0.00000081,0.,-0.00000196,-0.00002366,0.,0.00009185,-0.00003894,0.,-0.
 00010309,0.00020887,0.,-0.00006677,-0.00004687,0.,-0.00306731,-0.00153
 755,0.,-0.00047660,-0.00080697,0.,-0.01879933,0.01124819,0.,-0.0017588
 1,-0.00504754,0.,-0.00025273,-0.00006750,0.,0.11437150,-0.11984980,0.,
 0.03174853,-0.01062420,0.,0.00151381,0.00020903,0.,0.00002035,0.000026
 66,0.,0.00009466,0.00002818,0.,0.00003979,-0.00057230,0.,0.00000110,0.
 00000464,0.,-0.00000169,-0.00000091,0.,0.00000312,-0.00000262,0.,0.000
 00338,0.00000255,0.,-0.00000215,-0.00000336,0.,0.00000569,-0.00000022,
 0.,0.00002926,0.00003314,0.,-0.00000412,-0.00000095,0.,-0.00003813,-0.
 00003695,0.,0.00014665,-0.00008730,0.,0.00063834,0.00090123,0.,-0.1228
 0790,0.12460429,0.,0.,-0.00000458,0.,0.,-0.00000261,0.,0.,0.00000009,0
 .,0.,0.00000957,0.,0.,-0.00000418,0.,0.,-0.00006842,0.,0.,-0.00000116,
 0.,0.,0.00000176,0.,0.,0.00010235,0.,0.,-0.00119803,0.,0.,0.00000129,0
 .,0.,0.00603191,0.,0.,-0.00025359,0.,0.,0.00308969,0.,0.,0.00809648,0.
 ,0.,0.00021436,0.,0.,-0.03819389,0.,0.,0.00353468,0.,0.,0.00038494,0.,
 0.,0.00001804,0.,0.,0.00001286,0.,0.,-0.00052815,0.,0.,0.00000317,0.,0
 .,0.00000173,0.,0.,-0.00000004,0.,0.,0.00000095,0.,0.,0.00000180,0.,0.
 ,-0.00000161,0.,0.,0.00007824,0.,0.,0.00000233,0.,0.,0.00007551,0.,0.,
 -0.00000307,0.,0.,-0.00337494,0.,0.,0.02632774,-0.00000631,0.00000087,
 0.,0.00000120,-0.00000920,0.,0.00000113,-0.00000321,0.,-0.00002927,0.0
 0005698,0.,-0.00001471,-0.00000262,0.,-0.00002853,-0.00012212,0.,0.000
 00196,-0.00000253,0.,-0.00002023,0.00002121,0.,-0.00033685,0.00041256,
 0.,-0.00060845,-0.00141827,0.,0.00000204,0.00003125,0.,0.00013091,0.00
 094700,0.,-0.00231884,0.00402010,0.,0.00149734,0.00097818,0.,-0.021051
 21,-0.01830031,0.,0.00014617,-0.00019195,0.,0.00484206,0.00515026,0.,-
 0.25431377,-0.12718288,0.,0.00091067,-0.00228090,0.,0.00001293,-0.0000
 3014,0.,0.00005007,0.00010209,0.,0.00018674,0.00039088,0.,-0.00000055,
 -0.00000571,0.,0.00000414,0.00001258,0.,-0.00000640,0.00000328,0.,-0.0
 0000681,-0.00000312,0.,-0.00000406,0.00001353,0.,-0.00000782,0.0000008
 0,0.,0.00004780,-0.00001195,0.,-0.00003662,0.00003987,0.,0.00038989,0.
 00137939,0.,-0.00004250,0.00005811,0.,0.00008128,0.00017236,0.,0.00094
 722,-0.00049799,0.,0.26963099,-0.00001015,0.00000297,0.,-0.00000124,-0
 .00000102,0.,0.00000013,-0.00000854,0.,0.00000677,-0.00000747,0.,-0.00
 000316,-0.00000409,0.,0.00008557,0.00001027,0.,0.00001076,-0.00000406,
 0.,-0.00000006,0.00002283,0.,0.00004512,-0.00015169,0.,0.00073651,0.00
 035966,0.,0.00003245,0.00005043,0.,0.00076413,-0.00037258,0.,0.0026444
 2,-0.00113453,0.,0.00218085,-0.00506972,0.,0.01476168,0.00944437,0.,0.
 00014083,0.00024154,0.,-0.03012114,-0.01350834,0.,-0.12740935,-0.14377
 609,0.,0.00172082,0.00122505,0.,-0.00002123,-0.00002165,0.,-0.00011670
 ,-0.00003934,0.,-0.00037734,0.00010623,0.,0.00000078,-0.00000405,0.,0.
 00000315,0.00000391,0.,-0.00000328,0.00000385,0.,-0.00000501,-0.000002
 62,0.,0.00000132,0.00000619,0.,-0.00000648,0.00000042,0.,0.00000914,0.
 00001468,0.,0.00001342,0.00000322,0.,-0.00044558,-0.00001553,0.,-0.000
 02682,0.00001946,0.,-0.00137458,-0.00076963,0.,0.00046694,0.00104851,0
 .,0.13644385,0.15225087,0.,0.,0.00000049,0.,0.,0.00000051,0.,0.,-0.000
 00109,0.,0.,-0.00005159,0.,0.,0.00000312,0.,0.,0.00003531,0.,0.,0.0000
 0498,0.,0.,-0.00000525,0.,0.,0.00000544,0.,0.,0.00044738,0.,0.,-0.0000
 2758,0.,0.,-0.00004282,0.,0.,0.00534970,0.,0.,0.00752529,0.,0.,0.00381
 972,0.,0.,-0.00010606,0.,0.,0.00397305,0.,0.,-0.03795336,0.,0.,-0.0039
 2280,0.,0.,-0.00000109,0.,0.,0.00001170,0.,0.,0.00000666,0.,0.,0.00000
 149,0.,0.,0.00000027,0.,0.,0.00000083,0.,0.,-0.00000004,0.,0.,0.000002
 55,0.,0.,0.00000226,0.,0.,0.00003591,0.,0.,0.00001617,0.,0.,0.00032645
 ,0.,0.,0.00023150,0.,0.,0.00029928,0.,0.,-0.00454352,0.,0.,0.02590916,
 0.00002586,-0.00002929,0.,0.00001266,0.00004462,0.,0.00001182,0.000022
 54,0.,0.00000913,0.00002473,0.,0.00000284,-0.00000171,0.,0.00010771,0.
 00028124,0.,-0.00001291,0.00000543,0.,0.00002124,-0.00003353,0.,-0.001
 43056,0.00190557,0.,-0.00146324,-0.00060301,0.,-0.00010505,-0.00001041
 ,0.,-0.25022564,-0.13155455,0.,0.00525383,0.00228976,0.,-0.02129333,-0
 .01968810,0.,0.00111699,0.00139287,0.,0.00007914,-0.00013550,0.,-0.002
 91762,0.00399547,0.,0.00030005,0.00078950,0.,0.00010245,0.00033563,0.,
 0.00002282,0.00005988,0.,-0.00000828,-0.00005154,0.,0.00005396,-0.0001
 3464,0.,0.00000364,0.00001403,0.,-0.00003862,-0.00004552,0.,0.00000414
 ,-0.00000315,0.,0.00000899,0.00000169,0.,-0.00001025,-0.00000145,0.,0.
 00000721,-0.00000054,0.,-0.00264581,0.00268340,0.,0.00003069,-0.000023
 11,0.,0.00000929,0.00001379,0.,0.00001839,-0.00002191,0.,0.00110374,0.
 00039498,0.,-0.00107761,-0.00084131,0.,-0.00005158,-0.00014652,0.,0.27
 297394,-0.00004323,0.00006499,0.,0.00005352,-0.00010841,0.,-0.00000980
 ,-0.00002257,0.,0.00007655,-0.00004454,0.,-0.00001464,-0.00005197,0.,0
 .00041531,0.00070943,0.,-0.00000059,0.00001616,0.,0.00002864,0.0000032
 5,0.,-0.00041961,-0.00139479,0.,-0.00073451,0.00109166,0.,-0.00010882,
 0.00010518,0.,-0.13265546,-0.15064712,0.,-0.02891725,-0.01331140,0.,0.
 01607697,0.01055581,0.,0.00261731,-0.00482548,0.,-0.00000414,-0.000200
 89,0.,0.00280598,-0.00067625,0.,0.00075527,-0.00056937,0.,-0.00163047,
 -0.00011723,0.,0.00001602,0.00009406,0.,-0.00002784,0.00023563,0.,-0.0
 0010826,0.00001412,0.,-0.00000493,-0.00001096,0.,0.00004552,0.00012576
 ,0.,-0.00001258,0.00000391,0.,-0.00001443,-0.00000091,0.,-0.00002619,0
 .00002585,0.,-0.00001297,0.00000653,0.,0.00256735,0.00056326,0.,-0.000
 01183,0.00002326,0.,-0.00000595,-0.00050893,0.,0.00007236,-0.00000852,
 0.,-0.00030367,0.00110226,0.,0.00063800,0.00033768,0.,-0.00017226,0.00
 007652,0.,0.13907063,0.15734402,0.,0.,-0.00003734,0.,0.,0.00000224,0.,
 0.,0.00000579,0.,0.,-0.00005251,0.,0.,0.00000950,0.,0.,-0.00014478,0.,
 0.,-0.00000739,0.,0.,-0.00000830,0.,0.,-0.00066069,0.,0.,-0.00290906,0
 .,0.,0.00002657,0.,0.,-0.03765444,0.,0.,0.00321186,0.,0.,0.00414193,0.
 ,0.,0.00599804,0.,0.,-0.00007593,0.,0.,0.00776270,0.,0.,-0.00013619,0.
 ,0.,0.00026613,0.,0.,0.00004310,0.,0.,0.00002025,0.,0.,-0.00017903,0.,
 0.,0.00002039,0.,0.,0.00003239,0.,0.,0.00000027,0.,0.,0.00000173,0.,0.
 ,0.00000570,0.,0.,0.00000115,0.,0.,0.00193957,0.,0.,0.00004552,0.,0.,0
 .00001439,0.,0.,0.00003658,0.,0.,-0.00462258,0.,0.,0.00018830,0.,0.,-0
 .00135404,0.,0.,0.02406817\\0.00001815,0.00001236,0.,-0.00008395,-0.00
 002896,0.,0.00002272,0.00002546,0.,0.00001964,0.00009100,0.,0.00005487
 ,-0.00003108,0.,-0.00000873,-0.00006473,0.,-0.00003204,-0.00004103,0.,
 0.00006319,-0.00002417,0.,0.,-0.00001745,0.,0.00000873,-0.00006473,0.,
 -0.00002952,0.00012499,0.,0.00008395,-0.00002896,0.,-0.00001964,0.0000
 9100,0.,-0.00001815,0.00001236,0.,-0.00005487,-0.00003108,0.,0.0000295
 2,0.00012499,0.,-0.00002272,0.00002546,0.,0.00003204,-0.00004103,0.,-0
 .00006319,-0.00002417,0.,0.00008453,-0.00004768,0.,0.,-0.00006829,0.,-
 0.00008453,-0.00004768,0.,-0.00001479,-0.00000016,0.,0.00004673,-0.000
 03652,0.,-0.00002000,-0.00000048,0.,-0.00003431,-0.00000707,0.,-0.0000
 1766,0.00000033,0.,-0.00008631,0.00003674,0.,0.,0.00006515,0.,0.,0.000
 00258,0.,0.00008631,0.00003674,0.,0.00001766,0.00000033,0.,0.00001479,
 -0.00000016,0.,0.00003431,-0.00000707,0.,0.00002000,-0.00000048,0.,-0.
 00004673,-0.00003652,0.\\\@


 A MAN BEGINS CUTTING HIS WISDOM TEETH THE 1ST
 TIME HE BITES OFF MORE THAN HE CAN CHEW.
 Job cpu time:       0 days  0 hours 15 minutes 59.9 seconds.
 Elapsed time:       0 days  0 hours 16 minutes  3.9 seconds.
 File lengths (MBytes):  RWF=    171 Int=      0 D2E=      0 Chk=      7 Scr=      1
 Normal termination of Gaussian 16 at Fri Jul  3 11:15:32 2020.
