54
	Energy: -820397.2652704
C          3.25151       -4.00834        1.10663
C          2.60649       -2.80909        0.85352
C          4.61355       -4.17873        0.77377
C          3.27885       -1.70947        0.24304
C          5.32007       -3.10975        0.25793
C          4.68919       -1.85986        0.02028
C          5.45565       -0.72149       -0.36567
C          2.64578       -0.43013       -0.05704
C          4.87658        0.51384       -0.45113
C         -3.88458       -1.48815       -1.46745
C         -4.87950       -2.29101       -2.00309
C         -4.11853       -0.66045       -0.33273
C         -6.17314       -2.30272       -1.43992
C          0.29988       -1.34255       -0.34645
C         -1.06443       -1.18581       -0.33609
C          1.19470       -0.25815       -0.09083
C         -1.67002        0.04209        0.07143
C          3.46589        0.69881       -0.28563
C          0.62664        1.02837        0.07385
C          2.86783        2.02790       -0.38967
C         -5.46776       -0.59781        0.15904
C         -3.10260        0.19360        0.27441
C         -6.46002       -1.45169       -0.38846
C         -5.82131        0.37713        1.14705
C         -0.78617        1.11869        0.40373
C         -3.54154        1.23743        1.13528
C          1.46371        2.19993       -0.17077
C         -1.30016        2.19500        1.19587
C          3.64849        3.16888       -0.70537
C          0.90844        3.49170       -0.38321
C          3.08644        4.42801       -0.84049
C         -4.90568        1.29553        1.57114
C         -2.60885        2.21001        1.60042
C          1.69707        4.58580       -0.70050
H          5.10620       -5.12752        0.95982
H          6.38335       -3.19829        0.05330
H          1.58207       -2.69644        1.17932
H          2.70796       -4.81703        1.58490
H          6.52154       -0.84239       -0.53533
H          5.50717        1.36446       -0.67121
H         -4.66462       -2.89946       -2.87588
H         -2.92521       -1.45450       -1.96475
H         -7.46573       -1.40176        0.01944
H         -6.94326       -2.94509       -1.85437
H          0.70579       -2.30629       -0.62005
H         -1.68053       -2.04726       -0.54709
H         -5.18777        2.07938        2.26790
H         -6.84505        0.40270        1.50847
H         -0.61855        2.94613        1.57272
H         -2.95870        2.97595        2.28624
H          4.71413        3.06743       -0.86226
H          3.71395        5.27929       -1.08377
H          1.23632        5.55461       -0.86425
H         -0.16396        3.62089       -0.35073
