58
	Energy: -892525.1400750
C          6.76118        0.94825        0.58177
C          5.53991        0.34326        0.15077
C          7.97149        0.32814        0.36760
C          4.28659        0.95808        0.35327
C          5.59780       -0.93670       -0.51185
C          3.08917        0.36759       -0.06007
C          8.02780       -0.93550       -0.28989
C          6.87243       -1.55006       -0.71689
C          4.39152       -1.53249       -0.92543
C          1.65820        2.33869        0.57319
C          0.43239        2.96743        0.60157
C          1.77989        0.99656        0.13636
C         -0.77135        2.27217        0.32483
C          3.15412       -0.92011       -0.71139
C          0.58931        0.27831       -0.17005
C          1.92829       -1.53512       -1.14477
C         -2.04808        2.97781        0.18389
C         -0.70553        0.87019        0.09493
C         -2.15430        4.37637        0.37413
C         -3.19550        2.26071       -0.26219
C         -3.32926        5.06094        0.09752
C          0.71557       -0.97912       -0.87436
C         -1.95426        0.11260        0.07207
C         -4.37343        2.98478       -0.55943
C         -3.15888        0.79128       -0.28974
C         -4.44475        4.36067       -0.39002
C         -2.05213       -1.28201        0.47813
C         -4.30492        0.03810       -0.59340
C         -1.06099       -1.93134        1.25994
C         -1.17609       -3.28016        1.60980
C         -3.23548       -2.02500        0.16356
C         -2.27446       -4.03337        1.20575
C         -4.35207       -1.36633       -0.44801
C         -3.33434       -3.41972        0.49045
C         -5.50009       -2.12401       -0.79914
C         -4.50385       -4.13692        0.11032
C         -5.55984       -3.49431       -0.53397
H          6.71613        1.91160        1.08223
H          8.89196        0.79858        0.69828
H          4.27836        1.91446        0.86452
H          8.99044       -1.41024       -0.45088
H          6.91136       -2.51360       -1.21720
H          4.42224       -2.49904       -1.42214
H          2.54344        2.91588        0.80970
H          0.40412        4.02438        0.83279
H          1.98947       -2.46332       -1.70536
H         -1.30273        4.93945        0.73456
H         -3.38048        6.13406        0.25041
H         -0.18202       -1.46393       -1.23182
H         -0.20326       -1.37050        1.60479
H         -5.25325        2.46433       -0.91607
H         -5.36357        4.88868       -0.62350
H         -5.20690        0.53133       -0.93385
H         -0.39446       -3.74045        2.20573
H         -2.34701       -5.08645        1.46014
H         -6.34057       -1.61903       -1.26580
H         -4.56586       -5.19582        0.34242
H         -6.44378       -4.05840       -0.81419
